INSANE! Membrane UpperLeaflet>DPPC:DIPC:CHOL=20.0:65.0:15.0 LowerLeaflet>DPPC:DIPC:CHOL=20.0:65.0:15.0
72637
    1DPPC   NC3    1  12.742  27.710   6.163 -0.3478 -0.1812 -0.1851
    1DPPC   PO4    2  12.772  28.083   6.450 -0.3271  0.1753  0.2190
    1DPPC   GL1    3  12.678  28.154   5.937 -0.2106 -0.0105  0.0465
    1DPPC   GL2    4  13.074  28.107   5.809  0.3553  0.0465 -0.1180
    1DPPC   C1A    5  12.656  28.374   5.550  0.4171 -0.1296  0.0998
    1DPPC   C2A    6  12.770  28.606   5.238  0.1918  0.1094 -0.2145
    1DPPC   C3A    7  13.206  28.613   5.034 -0.1803  0.1819 -0.0162
    1DPPC   C4A    8  13.668  28.660   5.097  0.1270  0.0511  0.2165
    1DPPC   C1B    9  13.161  28.366   5.476 -0.0864 -0.1492 -0.0528
    1DPPC   C2B   10  13.350  28.137   5.123  0.0133  0.3894 -0.2946
    1DPPC   C3B   11  13.583  27.938   4.772  0.2410  0.0068 -0.1636
    1DPPC   C4B   12  13.989  28.031   4.670  0.0074  0.1807  0.1232
    1DPPC   NC3   13  20.456  16.698   6.130 -0.2084 -0.1243 -0.0080
    1DPPC   PO4   14  20.577  17.132   6.175 -0.2275  0.0600 -0.2604
    1DPPC   GL1   15  20.507  17.069   5.782  0.1554 -0.0964 -0.0835
    1DPPC   GL2   16  20.831  17.040   5.535  0.1096  0.0786  0.1560
    1DPPC   C1A   17  20.325  17.077   5.401  0.0115  0.1059  0.0533
    1DPPC   C2A   18  20.156  17.233   4.996  0.0792  0.0020 -0.0963
    1DPPC   C3A   19  20.293  17.080   4.602  0.0143  0.0749 -0.1534
    1DPPC   C4A   20  20.297  16.779   4.245 -0.1385 -0.1494  0.0301
    1DPPC   C1B   21  20.800  16.799   5.234 -0.1861 -0.1408 -0.0337
    1DPPC   C2B   22  20.917  16.488   4.877  0.0833  0.1412 -0.0987
    1DPPC   C3B   23  20.905  16.134   4.719 -0.2896 -0.2413  0.0715
    1DPPC   C4B   24  21.153  15.918   4.502  0.0698 -0.2518 -0.2614
    1DPPC   NC3   25  20.885  12.068   7.181 -0.1537  0.0110 -0.1317
    1DPPC   PO4   26  21.269  11.882   6.889  0.0438  0.2073 -0.3016
    1DPPC   GL1   27  21.247  12.115   6.578  0.0492 -0.0376  0.1502
    1DPPC   GL2   28  21.160  12.520   6.551 -0.0006 -0.0024 -0.2374
    1DPPC   C1A   29  21.180  12.079   6.103 -0.0400 -0.0109  0.1304
    1DPPC   C2A   30  21.114  12.115   5.716  0.2196  0.0099 -0.0267
    1DPPC   C3A   31  21.106  12.052   5.307 -0.0588 -0.5347 -0.2563
    1DPPC   C4A   32  21.011  11.970   4.868  0.0972 -0.0382  0.1474
    1DPPC   C1B   33  21.292  12.540   6.163 -0.0826 -0.2786  0.1179
    1DPPC   C2B   34  21.142  12.599   5.698  0.1724 -0.0365  0.0281
    1DPPC   C3B   35  20.977  12.522   5.286 -0.0368 -0.0995  0.0293
    1DPPC   C4B   36  21.089  12.871   4.881  0.2609  0.1381  0.1279
    1DPPC   NC3   37  21.359  13.450   7.018 -0.4261 -0.2476 -0.0836
    1DPPC   PO4   38  21.808  13.351   6.915 -0.0186 -0.0718  0.2479
    1DPPC   GL1   39  21.658  13.514   6.584  0.1683 -0.1563 -0.1427
    1DPPC   GL2   40  21.772  13.815   6.485  0.2277  0.2996 -0.0142
    1DPPC   C1A   41  21.838  13.352   6.285  0.2498  0.0064  0.2612
    1DPPC   C2A   42  21.861  13.150   5.934  0.0982 -0.1415  0.0077
    1DPPC   C3A   43  21.598  12.990   5.592  0.0195  0.1004  0.0476
    1DPPC   C4A   44  21.415  12.921   5.274 -0.0065 -0.0232 -0.0766
    1DPPC   C1B   45  21.928  13.787   6.040  0.3572 -0.3645 -0.1852
    1DPPC   C2B   46  22.068  13.615   5.665 -0.1191 -0.0049  0.0514
    1DPPC   C3B   47  21.995  13.307   5.452  0.3131  0.1084  0.2049
    1DPPC   C4B   48  21.814  13.182   5.012  0.5025 -0.1073  0.0998
    1DPPC   NC3   49  15.100  11.088   7.264  0.3083 -0.0650  0.1560
    1DPPC   PO4   50  14.885  11.504   7.010  0.0836 -0.0824 -0.0783
    1DPPC   GL1   51  14.966  11.362   6.594 -0.1000 -0.2284 -0.0511
    1DPPC   GL2   52  14.739  11.404   6.378  0.0188 -0.2746  0.1790
    1DPPC   C1A   53  15.252  11.492   6.159  0.1105  0.1830 -0.0559
    1DPPC   C2A   54  15.290  11.497   5.802  0.0760  0.0040 -0.2406
    1DPPC   C3A   55  15.459  11.519   5.315  0.0768 -0.0828 -0.1167
    1DPPC   C4A   56  15.585  11.344   4.918  0.2490 -0.1142  0.2470
    1DPPC   C1B   57  14.856  11.201   5.974 -0.0376 -0.1641 -0.1377
    1DPPC   C2B   58  14.919  11.257   5.583  0.1324  0.0389  0.1931
    1DPPC   C3B   59  14.991  11.258   5.165 -0.2136 -0.1398 -0.0420
    1DPPC   C4B   60  14.883  11.268   4.680  0.4970 -0.0020 -0.2883
    1DPPC   NC3   61  18.504   6.878   7.843  0.2771 -0.0369 -0.4322
    1DPPC   PO4   62  18.879   7.055   7.846 -0.1108  0.1187  0.2343
    1DPPC   GL1   63  18.776   6.841   7.415  0.0294 -0.0862 -0.0800
    1DPPC   GL2   64  18.547   6.561   7.390 -0.1793  0.1510 -0.1900
    1DPPC   C1A   65  18.829   6.822   6.953 -0.0675 -0.0728  0.0870
    1DPPC   C2A   66  18.802   6.797   6.532  0.4462 -0.0755  0.0621
    1DPPC   C3A   67  18.800   6.734   6.121  0.4848  0.1204 -0.0345
    1DPPC   C4A   68  18.604   6.641   5.802 -0.1703 -0.0014 -0.1203
    1DPPC   C1B   69  18.556   6.367   7.005 -0.2672 -0.2751 -0.0950
    1DPPC   C2B   70  18.456   6.330   6.609 -0.3493 -0.0186  0.0327
    1DPPC   C3B   71  18.485   6.202   6.212 -0.3200  0.0098  0.2382
    1DPPC   C4B   72  18.702   6.143   5.845  0.5542  0.4027  0.1729
    1DPPC   NC3   73  13.333  15.105   6.675 -0.1010 -0.1126  0.0789
    1DPPC   PO4   74  13.447  14.811   6.331  0.3002  0.4038 -0.1924
    1DPPC   GL1   75  13.810  14.817   6.016  0.2310  0.0193 -0.0510
    1DPPC   GL2   76  13.632  14.626   5.756 -0.1257 -0.2279 -0.3339
    1DPPC   C1A   77  14.048  14.592   5.581 -0.1388  0.0659  0.0798
    1DPPC   C2A   78  13.967  14.631   5.180 -0.0254 -0.2113  0.1432
    1DPPC   C3A   79  13.906  14.430   4.871  0.2421 -0.0584 -0.2629
    1DPPC   C4A   80  13.938  14.399   4.345 -0.0432  0.0974 -0.0521
    1DPPC   C1B   81  13.484  14.497   5.328 -0.1783 -0.0526  0.0211
    1DPPC   C2B   82  13.385  14.138   5.067  0.1817 -0.3618  0.2299
    1DPPC   C3B   83  13.701  13.775   4.957  0.2350 -0.2544 -0.1779
    1DPPC   C4B   84  13.832  13.607   4.584 -0.0095  0.2768  0.2014
    1DPPC   NC3   85  17.927   5.800   8.047 -0.0396 -0.5242 -0.2072
    1DPPC   PO4   86  17.665   5.545   8.140  0.0621  0.1857  0.3413
    1DPPC   GL1   87  17.808   5.555   7.616 -0.0970  0.1093 -0.2434
    1DPPC   GL2   88  18.210   5.560   7.663  0.1156  0.0761  0.3394
    1DPPC   C1A   89  17.875   5.539   7.150 -0.1459 -0.0164 -0.2053
    1DPPC   C2A   90  17.992   5.351   6.677  0.2336 -0.4307  0.1732
    1DPPC   C3A   91  18.012   5.355   6.365  0.2455  0.1664 -0.1850
    1DPPC   C4A   92  18.228   5.128   6.129  0.1509 -0.2081 -0.1584
    1DPPC   C1B   93  18.391   5.605   7.301 -0.0620 -0.1350  0.0542
    1DPPC   C2B   94  18.462   5.378   6.917 -0.1290  0.0505  0.2040
    1DPPC   C3B   95  18.654   5.326   6.496 -0.0303  0.0132 -0.1284
    1DPPC   C4B   96  18.692   5.268   6.047 -0.1436 -0.0179  0.4149
    1DPPC   NC3   97  27.989  24.528   6.657  0.0917  0.0963  0.1426
    1DPPC   PO4   98  27.858  24.835   6.372  0.0811 -0.1460  0.1760
    1DPPC   GL1   99  27.710  24.432   6.188  0.2319 -0.0358 -0.1039
    1DPPC   GL2  100  27.636  24.190   6.376 -0.0773  0.1965 -0.0721
    1DPPC   C1A  101  27.484  24.270   5.810 -0.1193 -0.0681  0.0053
    1DPPC   C2A  102  27.434  24.482   5.430  0.2999  0.0344  0.0438
    1DPPC   C3A  103  27.481  24.771   5.059 -0.1290  0.0579 -0.1858
    1DPPC   C4A  104  27.756  24.890   4.765 -0.2333 -0.1306 -0.0659
    1DPPC   C1B  105  27.492  23.811   6.114  0.0615  0.1995 -0.2896
    1DPPC   C2B  106  27.438  23.721   5.745  0.1495  0.1753  0.0220
    1DPPC   C3B  107  27.078  23.809   5.462 -0.1465 -0.1779  0.1648
    1DPPC   C4B  108  26.813  24.136   5.388 -0.1040  0.1910  0.1200
    1DPPC   NC3  109  17.103  10.350   7.362 -0.3472 -0.2846  0.3476
    1DPPC   PO4  110  16.925   9.984   7.303 -0.1254 -0.2340 -0.0186
    1DPPC   GL1  111  16.741  10.046   6.929 -0.3006 -0.0559  0.0953
    1DPPC   GL2  112  16.410  10.200   7.041  0.1081  0.1180 -0.4589
    1DPPC   C1A  113  16.615  10.004   6.462 -0.1689  0.2055  0.1823
    1DPPC   C2A  114  16.590   9.952   6.060 -0.0043  0.0206 -0.2367
    1DPPC   C3A  115  16.577   9.994   5.560  0.0401 -0.2074 -0.0908
    1DPPC   C4A  116  16.785   9.719   5.349 -0.1209  0.1284  0.1755
    1DPPC   C1B  117  16.143   9.997   6.744  0.3002  0.2666  0.3449
    1DPPC   C2B  118  16.090   9.988   6.266 -0.2045 -0.1108  0.3006
    1DPPC   C3B  119  16.097   9.949   5.760 -0.0266  0.1657  0.1670
    1DPPC   C4B  120  16.111  10.070   5.339 -0.1402  0.1015  0.0437
    1DPPC   NC3  121  21.524   8.913   7.474  0.1038  0.1402 -0.3910
    1DPPC   PO4  122  21.758   9.049   7.245  0.1203  0.0619 -0.1610
    1DPPC   GL1  123  21.790   8.808   6.815  0.1729 -0.0582 -0.0103
    1DPPC   GL2  124  22.100   8.575   6.689  0.0946  0.0187  0.4053
    1DPPC   C1A  125  21.898   8.639   6.221 -0.1259 -0.1160  0.2675
    1DPPC   C2A  126  22.060   8.575   5.844 -0.0526 -0.0014 -0.0831
    1DPPC   C3A  127  22.263   8.231   5.630 -0.2217  0.2201  0.1743
    1DPPC   C4A  128  22.609   7.986   5.344  0.3968  0.1562  0.1885
    1DPPC   C1B  129  21.988   8.164   6.410 -0.1436 -0.2641  0.0765
    1DPPC   C2B  130  22.054   7.869   6.062 -0.0446 -0.0502 -0.0384
    1DPPC   C3B  131  21.683   7.755   5.866  0.0251  0.0412 -0.0187
    1DPPC   C4B  132  21.242   7.892   5.968  0.1049 -0.0570 -0.1224
    1DPPC   NC3  133  19.566  21.184   6.049  0.1371 -0.3389  0.1520
    1DPPC   PO4  134  19.330  21.575   5.934 -0.0101  0.1223 -0.1154
    1DPPC   GL1  135  19.663  21.890   5.695  0.0099 -0.2324 -0.2165
    1DPPC   GL2  136  19.773  21.600   5.497  0.2810  0.4038 -0.1476
    1DPPC   C1A  137  19.866  22.157   5.299 -0.1964 -0.1941  0.2122
    1DPPC   C2A  138  19.749  22.131   4.821  0.0155  0.0455  0.1527
    1DPPC   C3A  139  19.885  22.152   4.434  0.1757  0.0970  0.0337
    1DPPC   C4A  140  19.796  22.279   4.066  0.4740  0.0972  0.2223
    1DPPC   C1B  141  19.835  21.679   5.100 -0.1637 -0.1583 -0.1119
    1DPPC   C2B  142  19.895  21.674   4.614 -0.0666  0.1112  0.1134
    1DPPC   C3B  143  20.029  21.452   4.323  0.1837  0.0498 -0.4128
    1DPPC   C4B  144  20.481  21.508   4.070 -0.0297  0.4906  0.0390
    1DPPC   NC3  145  12.969  11.165   6.588 -0.3471  0.0130 -0.3914
    1DPPC   PO4  146  12.861  10.793   6.710 -0.0764 -0.0292  0.2660
    1DPPC   GL1  147  12.824  10.862   6.201 -0.0727 -0.0499 -0.0166
    1DPPC   GL2  148  12.705  10.653   6.083 -0.1355  0.0872  0.1824
    1DPPC   C1A  149  12.670  11.081   5.881 -0.1119  0.2090  0.4652
    1DPPC   C2A  150  12.776  11.106   5.336 -0.1805 -0.0165 -0.1199
    1DPPC   C3A  151  12.856  11.352   4.971 -0.2045  0.0564  0.1369
    1DPPC   C4A  152  13.045  11.440   4.670  0.1114  0.3622  0.2208
    1DPPC   C1B  153  13.073  10.692   5.782  0.2785 -0.0565  0.2420
    1DPPC   C2B  154  13.298  10.680   5.482  0.2574  0.0230 -0.0484
    1DPPC   C3B  155  13.697  10.549   5.138 -0.0475 -0.4023 -0.0136
    1DPPC   C4B  156  13.862  10.242   4.871  0.2194  0.0715 -0.3264
    1DPPC   NC3  157  13.739  11.038   7.035  0.2808  0.1259  0.0473
    1DPPC   PO4  158  13.500  11.290   6.706  0.4214 -0.0815 -0.1488
    1DPPC   GL1  159  13.383  11.027   6.371  0.0382 -0.2820  0.4431
    1DPPC   GL2  160  13.238  11.192   6.129 -0.2119 -0.1291 -0.1710
    1DPPC   C1A  161  13.556  10.795   6.001  0.2799  0.1710  0.2893
    1DPPC   C2A  162  13.709  10.490   5.663 -0.2803  0.0006 -0.1820
    1DPPC   C3A  163  13.807  10.050   5.319 -0.2913 -0.3291  0.0329
    1DPPC   C4A  164  13.809   9.697   4.972  0.1159 -0.2459  0.3315
    1DPPC   C1B  165  13.258  11.159   5.608  0.4149  0.1124 -0.0083
    1DPPC   C2B  166  13.230  11.127   5.156 -0.0895  0.2264  0.0756
    1DPPC   C3B  167  13.323  11.082   4.750 -0.1327 -0.0628 -0.2562
    1DPPC   C4B  168  13.329  11.096   4.331 -0.1826  0.1240  0.3305
    1DPPC   NC3  169   6.886   5.263   6.393 -0.0146 -0.0759  0.3076
    1DPPC   PO4  170   6.630   5.657   6.270  0.0293  0.1470 -0.1062
    1DPPC   GL1  171   6.365   5.814   5.907  0.1758  0.4164 -0.1132
    1DPPC   GL2  172   6.155   6.021   5.945 -0.4958 -0.0102  0.1131
    1DPPC   C1A  173   6.403   5.784   5.536  0.1446 -0.1052 -0.0503
    1DPPC   C2A  174   6.465   5.561   5.153  0.1520 -0.0464 -0.0889
    1DPPC   C3A  175   6.512   5.294   4.891  0.1050  0.2119  0.2296
    1DPPC   C4A  176   6.166   4.982   4.831 -0.1904 -0.0600 -0.1600
    1DPPC   C1B  177   6.437   6.318   5.607  0.0662  0.0388 -0.0199
    1DPPC   C2B  178   6.499   6.294   5.224 -0.0521 -0.3515  0.1856
    1DPPC   C3B  179   6.675   6.042   4.958  0.1594 -0.1018 -0.2805
    1DPPC   C4B  180   6.900   5.599   4.849  0.0992 -0.1364  0.4976
    1DPPC   NC3  181  13.156  13.111   6.392 -0.0376  0.0506 -0.2063
    1DPPC   PO4  182  13.547  13.276   6.500  0.2618  0.2773 -0.2105
    1DPPC   GL1  183  13.772  13.267   6.183 -0.3967  0.1590  0.0455
    1DPPC   GL2  184  14.038  13.411   6.232 -0.0268 -0.0157 -0.1751
    1DPPC   C1A  185  13.669  13.083   5.808 -0.2491 -0.1081  0.2051
    1DPPC   C2A  186  13.775  12.899   5.435 -0.0305  0.0724  0.0607
    1DPPC   C3A  187  13.702  12.848   4.967  0.0642  0.2628  0.1224
    1DPPC   C4A  188  13.991  13.124   4.621  0.0146 -0.3405 -0.4909
    1DPPC   C1B  189  14.139  13.230   5.826  0.2275 -0.0507 -0.3461
    1DPPC   C2B  190  14.379  13.102   5.472 -0.2310  0.0737  0.0286
    1DPPC   C3B  191  14.262  12.891   5.089  0.1550 -0.3080  0.1296
    1DPPC   C4B  192  14.405  12.849   4.719 -0.2458 -0.0549  0.3188
    1DPPC   NC3  193  27.647   9.077   6.441  0.2888  0.3236  0.1698
    1DPPC   PO4  194  27.499   8.663   6.611  0.1582  0.3011  0.3107
    1DPPC   GL1  195  27.561   8.522   6.180 -0.0689 -0.4544 -0.1588
    1DPPC   GL2  196  27.775   8.242   6.066 -0.1024 -0.0262 -0.1468
    1DPPC   C1A  197  27.431   8.493   5.789  0.3329 -0.0643  0.1096
    1DPPC   C2A  198  27.410   8.449   5.362 -0.1375  0.0654  0.0092
    1DPPC   C3A  199  27.732   8.618   5.138 -0.1275  0.1103 -0.0674
    1DPPC   C4A  200  28.197   8.385   5.022 -0.1709  0.2286 -0.3219
    1DPPC   C1B  201  27.955   7.887   5.802  0.2269 -0.1808  0.0105
    1DPPC   C2B  202  27.815   7.502   5.440  0.1131  0.0081  0.3903
    1DPPC   C3B  203  27.716   7.654   4.953 -0.0489  0.2062  0.0286
    1DPPC   C4B  204  27.785   7.502   4.591  0.0130  0.0750  0.0676
    1DPPC   NC3  205  19.971  13.949   6.723  0.2005  0.1186 -0.0011
    1DPPC   PO4  206  20.407  13.818   6.939 -0.1511  0.0075 -0.1613
    1DPPC   GL1  207  20.476  13.822   6.433 -0.1227 -0.0693 -0.1633
    1DPPC   GL2  208  20.256  13.598   6.418  0.3046  0.1045  0.0047
    1DPPC   C1A  209  20.592  14.108   6.103 -0.1125 -0.3372  0.3287
    1DPPC   C2A  210  20.673  14.028   5.703 -0.2183  0.2247 -0.3719
    1DPPC   C3A  211  20.579  13.953   5.233  0.2870 -0.0428 -0.0002
    1DPPC   C4A  212  20.826  13.849   5.046 -0.1669  0.2292 -0.1394
    1DPPC   C1B  213  20.273  13.696   5.978  0.1776  0.4547  0.1051
    1DPPC   C2B  214  20.121  13.650   5.578 -0.1021  0.0716  0.1464
    1DPPC   C3B  215  19.928  13.600   5.158  0.0747 -0.0266 -0.0366
    1DPPC   C4B  216  19.918  13.659   4.752  0.2481 -0.2583  0.1872
    1DPPC   NC3  217  17.744   6.717   7.666  0.0617 -0.0168 -0.2668
    1DPPC   PO4  218  18.136   6.557   7.717  0.0420  0.3242 -0.2407
    1DPPC   GL1  219  18.079   6.496   7.187  0.2698 -0.0191 -0.1333
    1DPPC   GL2  220  17.855   6.741   7.064 -0.1960 -0.0193  0.0787
    1DPPC   C1A  221  17.911   6.419   6.726 -0.0370  0.0790  0.2056
    1DPPC   C2A  222  17.873   6.274   6.348 -0.1316 -0.3464  0.0718
    1DPPC   C3A  223  18.024   5.960   6.031  0.1554  0.1713 -0.0146
    1DPPC   C4A  224  17.998   5.531   5.893 -0.0754 -0.3066 -0.0222
    1DPPC   C1B  225  17.539   6.923   6.709  0.2978 -0.0349  0.4888
    1DPPC   C2B  226  17.548   6.813   6.305  0.1209  0.0853  0.0741
    1DPPC   C3B  227  17.699   6.737   5.976  0.1559 -0.0859 -0.1345
    1DPPC   C4B  228  17.700   6.253   5.763  0.0785  0.3164 -0.1031
    1DPPC   NC3  229  21.731  22.780   6.172  0.0190 -0.0077 -0.2910
    1DPPC   PO4  230  21.543  22.300   6.178 -0.2983  0.3020 -0.2101
    1DPPC   GL1  231  21.391  22.148   5.758 -0.1741  0.4620 -0.2655
    1DPPC   GL2  232  21.679  21.957   5.710 -0.0034  0.0923 -0.1384
    1DPPC   C1A  233  21.375  22.162   5.336 -0.0778 -0.1720  0.1942
    1DPPC   C2A  234  21.472  22.293   4.912 -0.0024 -0.0144 -0.0198
    1DPPC   C3A  235  21.681  22.500   4.481  0.3626 -0.2502  0.2507
    1DPPC   C4A  236  22.057  22.792   4.394 -0.1806  0.1673  0.1729
    1DPPC   C1B  237  21.854  21.969   5.272  0.1504  0.0288 -0.2020
    1DPPC   C2B  238  21.755  21.915   4.791  0.0400  0.0684  0.1689
    1DPPC   C3B  239  22.086  22.038   4.488  0.1262  0.1138  0.3329
    1DPPC   C4B  240  22.242  22.333   4.265  0.1242  0.2726  0.0412
    1DPPC   NC3  241  22.603  21.023   6.486 -0.2817  0.1002 -0.1771
    1DPPC   PO4  242  22.374  21.455   6.419 -0.0345 -0.0515  0.1901
    1DPPC   GL1  243  22.655  21.684   6.079  0.2040  0.1083  0.0249
    1DPPC   GL2  244  22.658  21.983   5.887 -0.1319  0.0864 -0.4162
    1DPPC   C1A  245  22.991  21.565   5.763  0.2342 -0.3237 -0.0365
    1DPPC   C2A  246  23.076  21.613   5.321  0.1045  0.0260 -0.0486
    1DPPC   C3A  247  23.131  21.458   4.989  0.0757  0.1047  0.0705
    1DPPC   C4A  248  23.236  21.116   4.715 -0.0235  0.3905  0.0714
    1DPPC   C1B  249  22.772  21.988   5.462 -0.2263 -0.2009 -0.0949
    1DPPC   C2B  250  22.899  21.983   5.043 -0.0389  0.0340  0.1027
    1DPPC   C3B  251  23.049  22.048   4.693 -0.0098  0.0297 -0.2043
    1DPPC   C4B  252  23.414  22.050   4.556 -0.1778  0.0028  0.0327
    1DPPC   NC3  253  21.334  21.891   6.446  0.1228  0.0240 -0.0691
    1DPPC   PO4  254  21.273  21.402   6.310  0.0330 -0.0220  0.1459
    1DPPC   GL1  255  21.702  21.290   6.107 -0.0499  0.2105  0.2152
    1DPPC   GL2  256  22.003  21.363   6.027 -0.0941  0.3412  0.0649
    1DPPC   C1A  257  21.846  21.500   5.613  0.1644  0.0951  0.1077
    1DPPC   C2A  258  21.903  21.549   5.154  0.0696  0.0047  0.2365
    1DPPC   C3A  259  22.167  21.461   4.929 -0.0388  0.0409  0.0362
    1DPPC   C4A  260  22.331  21.135   4.648  0.2150 -0.1585 -0.0054
    1DPPC   C1B  261  22.111  21.081   5.628  0.0091  0.1093  0.0423
    1DPPC   C2B  262  22.239  21.032   5.195  0.0365 -0.1391  0.2160
    1DPPC   C3B  263  22.254  20.748   4.880  0.3484 -0.0847 -0.0395
    1DPPC   C4B  264  22.627  20.717   4.592 -0.2886  0.0598  0.0377
    1DPPC   NC3  265  18.559   3.993   7.893  0.0681  0.0259  0.1310
    1DPPC   PO4  266  18.419   4.387   7.688 -0.1022  0.1410 -0.2962
    1DPPC   GL1  267  18.685   4.675   7.354 -0.2909  0.1505 -0.0303
    1DPPC   GL2  268  18.908   4.559   7.276  0.0147  0.1001  0.1029
    1DPPC   C1A  269  18.448   4.816   7.012 -0.2824 -0.2590 -0.0977
    1DPPC   C2A  270  18.375   4.938   6.629 -0.1420  0.0068 -0.4786
    1DPPC   C3A  271  18.246   4.684   6.347 -0.0875 -0.0377  0.1492
    1DPPC   C4A  272  18.030   4.419   5.948  0.0203 -0.1165  0.1576
    1DPPC   C1B  273  18.765   4.450   6.947 -0.3260 -0.0704 -0.1803
    1DPPC   C2B  274  18.969   4.379   6.622  0.3074 -0.0518  0.1599
    1DPPC   C3B  275  19.499   4.242   6.437 -0.0702 -0.3380  0.3314
    1DPPC   C4B  276  19.586   3.871   6.128  0.0134  0.1305 -0.0479
    1DPPC   NC3  277  21.486  28.869   7.516  0.0775 -0.0653 -0.0034
    1DPPC   PO4  278  21.688  28.963   7.072  0.0502  0.2764  0.0943
    1DPPC   GL1  279  21.670  29.164   6.651  0.2738  0.0106  0.0545
    1DPPC   GL2  280  21.478  29.036   6.346  0.0139 -0.1740 -0.4361
    1DPPC   C1A  281  21.865  29.321   6.286 -0.0202  0.1535  0.2265
    1DPPC   C2A  282  21.748  29.489   5.997 -0.0646 -0.1090 -0.1978
    1DPPC   C3A  283  21.783  29.485   5.591 -0.0717 -0.0112 -0.0114
    1DPPC   C4A  284  21.813  29.186   5.175  0.0232  0.1093  0.2830
    1DPPC   C1B  285  21.604  28.907   6.038 -0.2445 -0.0405 -0.1911
    1DPPC   C2B  286  21.650  28.919   5.636 -0.1710  0.3230 -0.0598
    1DPPC   C3B  287  21.945  28.711   5.413 -0.3506 -0.0316  0.0088
    1DPPC   C4B  288  21.927  28.395   5.121 -0.0109  0.1995  0.1598
    1DPPC   NC3  289  23.825  10.555   6.854  0.0706  0.2516 -0.4806
    1DPPC   PO4  290  23.388  10.605   6.926 -0.3024 -0.0823  0.1363
    1DPPC   GL1  291  23.380  10.530   6.464 -0.0499 -0.2640 -0.2593
    1DPPC   GL2  292  23.789  10.644   6.370  0.1801  0.2418 -0.1328
    1DPPC   C1A  293  23.384  10.551   6.070  0.1902  0.2051 -0.0287
    1DPPC   C2A  294  23.288  10.686   5.588 -0.0214 -0.0751  0.0663
    1DPPC   C3A  295  23.282  10.959   5.288  0.0650 -0.0602  0.1650
    1DPPC   C4A  296  23.437  11.063   4.885  0.0725  0.1608 -0.1382
    1DPPC   C1B  297  23.845  10.629   5.973 -0.3121 -0.0846  0.2439
    1DPPC   C2B  298  23.848  10.683   5.514 -0.0431 -0.0935  0.0516
    1DPPC   C3B  299  23.819  10.802   5.087  0.1750  0.0982  0.0079
    1DPPC   C4B  300  23.794  10.805   4.610  0.3040  0.3374 -0.1119
    1DPPC   NC3  301  18.177  13.681   6.740 -0.0879 -0.2164  0.1870
    1DPPC   PO4  302  17.712  13.762   6.815 -0.0449  0.0589  0.4065
    1DPPC   GL1  303  17.489  13.444   6.530  0.3679  0.0884  0.1171
    1DPPC   GL2  304  17.150  13.352   6.570  0.4342  0.0978 -0.1141
    1DPPC   C1A  305  17.405  13.296   6.152 -0.0059 -0.1590 -0.0173
    1DPPC   C2A  306  17.544  13.309   5.723 -0.3619  0.4453  0.4761
    1DPPC   C3A  307  17.850  13.419   5.334  0.1158 -0.0317 -0.0767
    1DPPC   C4A  308  17.643  13.490   4.922 -0.2047  0.1369 -0.0462
    1DPPC   C1B  309  16.848  13.397   6.227 -0.2440  0.2001  0.0381
    1DPPC   C2B  310  16.720  13.409   5.811  0.2953  0.3480 -0.2007
    1DPPC   C3B  311  16.618  13.301   5.387 -0.0556  0.0201  0.2774
    1DPPC   C4B  312  16.576  13.561   5.032 -0.1930 -0.0345  0.0588
    1DPPC   NC3  313  10.248  19.526   6.412  0.2732 -0.0776  0.1548
    1DPPC   PO4  314  10.028  19.816   6.330  0.0567  0.2419  0.0801
    1DPPC   GL1  315   9.965  19.829   5.768 -0.0109 -0.2846 -0.0304
    1DPPC   GL2  316   9.659  19.990   5.714  0.1821  0.0750  0.1960
    1DPPC   C1A  317   9.941  19.463   5.515  0.1284  0.1319  0.2948
    1DPPC   C2A  318   9.777  19.312   5.177 -0.0100 -0.0940 -0.0548
    1DPPC   C3A  319   9.527  19.268   4.810 -0.1776 -0.1002 -0.2375
    1DPPC   C4A  320   9.182  19.344   4.519  0.0927  0.2119 -0.1156
    1DPPC   C1B  321   9.494  19.773   5.399  0.0266 -0.1881  0.3792
    1DPPC   C2B  322   9.159  19.636   5.171  0.1504  0.1656  0.0138
    1DPPC   C3B  323   8.740  19.416   5.259 -0.1155 -0.0777 -0.0012
    1DPPC   C4B  324   8.330  19.545   5.179  0.2896 -0.1611  0.1156
    1DPPC   NC3  325  25.747   8.803   8.001  0.2211 -0.1649 -0.3662
    1DPPC   PO4  326  25.650   8.604   7.694 -0.0716  0.4949 -0.2160
    1DPPC   GL1  327  25.724   8.754   7.245 -0.0280 -0.2524  0.0207
    1DPPC   GL2  328  26.092   8.840   7.052  0.1237  0.0970 -0.2457
    1DPPC   C1A  329  25.570   8.923   6.881 -0.1473 -0.1636  0.0180
    1DPPC   C2A  330  25.197   9.072   6.609 -0.1120 -0.1843 -0.1406
    1DPPC   C3A  331  25.108   9.036   6.177 -0.1201  0.3582  0.3459
    1DPPC   C4A  332  25.065   8.984   5.723  0.2204 -0.1295 -0.0841
    1DPPC   C1B  333  26.072   8.683   6.644  0.1553  0.1179  0.0704
    1DPPC   C2B  334  26.012   8.694   6.241 -0.0616 -0.0963 -0.0084
    1DPPC   C3B  335  25.917   8.645   5.741  0.2555  0.0597 -0.0484
    1DPPC   C4B  336  26.125   8.552   5.359  0.2724  0.0257 -0.1446
    1DPPC   NC3  337  16.259  14.547   6.921  0.2946 -0.2975  0.1080
    1DPPC   PO4  338  16.609  14.667   6.662 -0.1553  0.1667 -0.1269
    1DPPC   GL1  339  16.659  14.678   6.154  0.0941  0.0852  0.2786
    1DPPC   GL2  340  16.980  14.648   5.978 -0.0880  0.1115 -0.1067
    1DPPC   C1A  341  16.346  14.692   5.863 -0.0503  0.1653  0.0141
    1DPPC   C2A  342  16.265  14.822   5.395 -0.4918 -0.1507 -0.3201
    1DPPC   C3A  343  16.046  14.817   4.980 -0.1272 -0.0230 -0.2866
    1DPPC   C4A  344  15.987  14.572   4.628 -0.1316 -0.0898 -0.0053
    1DPPC   C1B  345  16.877  14.721   5.591  0.3518  0.1566  0.1956
    1DPPC   C2B  346  16.649  14.592   5.189 -0.0917  0.0931  0.0515
    1DPPC   C3B  347  16.549  14.662   4.812  0.0403  0.0011 -0.0591
    1DPPC   C4B  348  16.469  14.445   4.409 -0.0831  0.0063 -0.1131
    1DPPC   NC3  349  29.259   9.549   6.094 -0.1818 -0.0182  0.0684
    1DPPC   PO4  350  28.825   9.602   6.036  0.0606  0.0622 -0.0850
    1DPPC   GL1  351  28.787   9.323   5.844 -0.2468  0.1498 -0.0806
    1DPPC   GL2  352  29.084   9.116   5.923 -0.0491  0.1784 -0.2229
    1DPPC   C1A  353  28.561   9.147   5.492 -0.0613 -0.1942  0.2131
    1DPPC   C2A  354  28.312   9.302   5.237  0.2883  0.2914 -0.3001
    1DPPC   C3A  355  27.983   9.232   5.068 -0.0747 -0.0579 -0.0038
    1DPPC   C4A  356  27.660   9.370   4.694 -0.1411  0.2191  0.0539
    1DPPC   C1B  357  29.219   9.120   5.457 -0.2870  0.2599  0.2912
    1DPPC   C2B  358  29.327   9.211   4.979 -0.0412  0.1839 -0.4344
    1DPPC   C3B  359  29.121   9.445   4.642 -0.1424 -0.3265  0.1419
    1DPPC   C4B  360  29.183   9.911   4.437 -0.2681 -0.2555  0.1768
    1DPPC   NC3  361  23.032  18.835   6.301 -0.1739 -0.0614  0.0591
    1DPPC   PO4  362  23.424  18.957   6.383 -0.1400 -0.0772 -0.0989
    1DPPC   GL1  363  23.431  18.952   5.893  0.0060  0.1475 -0.0853
    1DPPC   GL2  364  23.056  19.137   5.813 -0.1725 -0.0938  0.1239
    1DPPC   C1A  365  23.662  18.921   5.522 -0.1075  0.2563 -0.2388
    1DPPC   C2A  366  23.731  19.008   5.175  0.0859 -0.3438  0.0911
    1DPPC   C3A  367  23.673  19.004   4.711 -0.2598  0.2387 -0.1777
    1DPPC   C4A  368  24.000  18.906   4.410 -0.1320 -0.1839  0.0498
    1DPPC   C1B  369  23.158  19.035   5.336 -0.1592  0.2019  0.0532
    1DPPC   C2B  370  23.294  19.244   4.981 -0.0020 -0.0563  0.0546
    1DPPC   C3B  371  23.407  19.381   4.530 -0.0018 -0.1880 -0.2896
    1DPPC   C4B  372  23.471  19.233   4.182  0.1100 -0.0035  0.2537
    1DPPC   NC3  373  19.894  17.814   5.839 -0.0743 -0.0411 -0.0768
    1DPPC   PO4  374  19.988  18.216   5.928 -0.0552  0.2414 -0.0021
    1DPPC   GL1  375  19.948  18.390   5.537 -0.1403 -0.0658  0.2242
    1DPPC   GL2  376  19.705  18.204   5.427 -0.0449 -0.0594  0.0397
    1DPPC   C1A  377  20.115  18.499   5.190 -0.3393  0.2942 -0.2342
    1DPPC   C2A  378  20.181  18.374   4.802 -0.0967  0.2235 -0.1876
    1DPPC   C3A  379  20.286  18.265   4.479  0.0883  0.2544  0.1689
    1DPPC   C4A  380  20.181  17.940   4.169 -0.1994 -0.1563  0.1115
    1DPPC   C1B  381  19.754  18.154   4.975  0.0200  0.2000 -0.2384
    1DPPC   C2B  382  19.810  18.088   4.558  0.2928 -0.1820 -0.0257
    1DPPC   C3B  383  19.736  18.018   4.130  0.1747 -0.0033  0.3951
    1DPPC   C4B  384  19.763  17.733   3.909  0.1209 -0.2454 -0.0449
    1DPPC   NC3  385  20.292   8.963   7.802  0.1819 -0.1052 -0.2383
    1DPPC   PO4  386  20.623   8.988   7.491 -0.5292  0.0352  0.1624
    1DPPC   GL1  387  20.723   8.545   7.178  0.0862  0.0188  0.2891
    1DPPC   GL2  388  20.462   8.290   7.270 -0.2489 -0.3859  0.0871
    1DPPC   C1A  389  20.612   8.375   6.788 -0.1336  0.0452  0.0562
    1DPPC   C2A  390  20.586   8.425   6.327  0.1421  0.0260 -0.0028
    1DPPC   C3A  391  20.592   8.207   5.962  0.4216 -0.1846 -0.0452
    1DPPC   C4A  392  20.448   7.970   5.502  0.0907 -0.0564  0.0830
    1DPPC   C1B  393  20.658   7.932   7.046 -0.1277  0.0653 -0.1067
    1DPPC   C2B  394  20.697   7.576   6.621  0.1157 -0.0677  0.0093
    1DPPC   C3B  395  20.666   7.388   6.390  0.1290 -0.0463  0.3319
    1DPPC   C4B  396  20.544   7.044   6.238  0.3010 -0.1246  0.1958
    1DPPC   NC3  397  23.892  14.759   7.276  0.1093 -0.0414  0.2079
    1DPPC   PO4  398  23.859  15.085   6.895  0.1252  0.1167  0.1965
    1DPPC   GL1  399  23.753  14.952   6.525  0.0805  0.1710 -0.0746
    1DPPC   GL2  400  23.849  14.606   6.429 -0.0081 -0.0439 -0.0295
    1DPPC   C1A  401  23.776  15.154   6.144  0.2095  0.0543  0.0897
    1DPPC   C2A  402  23.847  15.101   5.647  0.3215  0.0865 -0.0382
    1DPPC   C3A  403  23.957  15.015   5.278  0.2450 -0.2520  0.2765
    1DPPC   C4A  404  23.923  14.856   4.869  0.1379  0.0553 -0.0254
    1DPPC   C1B  405  23.687  14.577   5.892  0.1438  0.2811  0.1679
    1DPPC   C2B  406  23.728  14.583   5.540 -0.0707 -0.0078  0.1207
    1DPPC   C3B  407  23.774  14.402   5.223 -0.2323  0.1692  0.1388
    1DPPC   C4B  408  24.089  14.275   5.031  0.0314 -0.0405 -0.0557
    1DPPC   NC3  409   5.774   9.403   6.902 -0.1776  0.0300  0.2269
    1DPPC   PO4  410   5.543   9.047   6.766 -0.2975  0.0429  0.1824
    1DPPC   GL1  411   5.817   9.224   6.309  0.0986  0.1157  0.0022
    1DPPC   GL2  412   5.905   8.935   6.099  0.1182 -0.2713  0.2019
    1DPPC   C1A  413   5.834   9.574   6.020 -0.3405 -0.0477 -0.3366
    1DPPC   C2A  414   5.558   9.799   5.753  0.3422  0.1986 -0.0612
    1DPPC   C3A  415   5.491   9.908   5.372  0.3963 -0.1747  0.2218
    1DPPC   C4A  416   5.292   9.992   5.048  0.0382  0.2163  0.1660
    1DPPC   C1B  417   5.870   9.217   5.703 -0.0645  0.1954  0.2388
    1DPPC   C2B  418   5.823   9.154   5.249 -0.3512 -0.1441  0.0772
    1DPPC   C3B  419   5.877   8.693   5.134  0.1066 -0.0680  0.0238
    1DPPC   C4B  420   6.303   8.584   5.051 -0.2717 -0.0788  0.3668
    1DPPC   NC3  421  19.295  17.328   6.017 -0.3674 -0.0969 -0.0062
    1DPPC   PO4  422  19.043  17.638   5.963 -0.6243 -0.0195 -0.0796
    1DPPC   GL1  423  19.020  17.380   5.560  0.0047  0.2998  0.0823
    1DPPC   GL2  424  18.834  17.151   5.471 -0.1592 -0.0119 -0.2086
    1DPPC   C1A  425  19.194  17.272   5.101  0.1519 -0.1262 -0.0336
    1DPPC   C2A  426  19.028  17.199   4.543  0.0301  0.1232  0.1243
    1DPPC   C3A  427  18.957  17.356   4.207 -0.1592  0.0468 -0.0697
    1DPPC   C4A  428  18.752  17.600   3.862 -0.1803 -0.2620 -0.2306
    1DPPC   C1B  429  18.728  16.944   5.126  0.0654  0.0448 -0.2229
    1DPPC   C2B  430  18.707  16.814   4.651  0.0782  0.0192 -0.1859
    1DPPC   C3B  431  18.567  16.535   4.443  0.0050  0.1242  0.1690
    1DPPC   C4B  432  18.121  16.343   4.344 -0.0476  0.1975 -0.0928
    1DPPC   NC3  433  22.861  11.320   6.829  0.0529  0.0046  0.3763
    1DPPC   PO4  434  23.143  11.499   6.739 -0.0713  0.1081 -0.1290
    1DPPC   GL1  435  23.056  11.606   6.388 -0.1069  0.0972 -0.1335
    1DPPC   GL2  436  22.786  11.418   6.261  0.1023 -0.1443  0.1161
    1DPPC   C1A  437  22.927  11.822   5.993  0.1532  0.1894 -0.2308
    1DPPC   C2A  438  23.083  11.871   5.632 -0.0272 -0.1322  0.1258
    1DPPC   C3A  439  23.183  11.850   5.244 -0.0268 -0.2509 -0.3097
    1DPPC   C4A  440  23.109  11.615   4.855  0.0645  0.3054 -0.0213
    1DPPC   C1B  441  22.936  11.345   5.839 -0.0687 -0.1897  0.1480
    1DPPC   C2B  442  22.782  11.305   5.431  0.0088 -0.0647  0.2989
    1DPPC   C3B  443  22.919  11.190   5.036  0.2161 -0.1745 -0.0501
    1DPPC   C4B  444  23.048  11.087   4.571  0.1134 -0.0335  0.2074
    1DPPC   NC3  445  12.865   5.562   8.042 -0.2335 -0.0005 -0.1208
    1DPPC   PO4  446  12.961   5.941   8.072  0.1577  0.2843  0.0848
    1DPPC   GL1  447  13.042   6.005   7.694  0.2134 -0.0576  0.0970
    1DPPC   GL2  448  13.429   6.073   7.569  0.0817  0.1563  0.1058
    1DPPC   C1A  449  13.036   5.911   7.292 -0.1623 -0.1721  0.0893
    1DPPC   C2A  450  13.324   5.715   6.971 -0.1177  0.0089 -0.2081
    1DPPC   C3A  451  13.382   5.355   6.704 -0.1659 -0.1231  0.0991
    1DPPC   C4A  452  13.481   5.174   6.253  0.0185 -0.0257  0.2574
    1DPPC   C1B  453  13.586   6.071   7.209 -0.2159 -0.2005  0.1771
    1DPPC   C2B  454  13.722   6.078   6.778 -0.2854  0.0931 -0.1431
    1DPPC   C3B  455  13.952   5.814   6.441  0.1700  0.0194 -0.2708
    1DPPC   C4B  456  13.976   5.423   6.432  0.0499  0.0119 -0.2091
    1DPPC   NC3  457  15.153  10.495   7.220  0.1844 -0.3177 -0.0049
    1DPPC   PO4  458  15.487  10.765   7.248 -0.1882  0.1591  0.1868
    1DPPC   GL1  459  15.536  10.743   6.747  0.0135  0.2916 -0.1922
    1DPPC   GL2  460  15.527  10.332   6.764 -0.0909  0.0093  0.0710
    1DPPC   C1A  461  15.623  10.678   6.409  0.2475  0.1344 -0.0145
    1DPPC   C2A  462  15.652  10.643   5.962  0.2173  0.0670 -0.0305
    1DPPC   C3A  463  15.847  10.539   5.542  0.0148 -0.0104  0.0354
    1DPPC   C4A  464  15.842  10.469   5.084  0.1974  0.0512  0.1290
    1DPPC   C1B  465  15.668  10.201   6.395 -0.0005 -0.1671  0.0210
    1DPPC   C2B  466  15.662  10.127   5.960  0.1367 -0.1797 -0.0411
    1DPPC   C3B  467  15.623  10.020   5.560 -0.4047  0.0625 -0.3518
    1DPPC   C4B  468  15.728   9.981   5.141  0.0266  0.1131 -0.1529
    1DPPC   NC3  469  26.074  10.374   6.892  0.1729  0.3276  0.1529
    1DPPC   PO4  470  25.699  10.298   7.054  0.1225 -0.0685 -0.1951
    1DPPC   GL1  471  25.795  10.197   6.533 -0.1683 -0.0998 -0.2126
    1DPPC   GL2  472  26.054  10.193   6.436 -0.1313  0.2448 -0.3709
    1DPPC   C1A  473  25.624  10.012   6.182 -0.0428  0.0170  0.0196
    1DPPC   C2A  474  25.548   9.971   5.699 -0.0152  0.0481  0.1395
    1DPPC   C3A  475  25.570  10.002   5.354 -0.1060  0.1683 -0.2805
    1DPPC   C4A  476  25.510  10.342   4.971 -0.0379 -0.0450 -0.1486
    1DPPC   C1B  477  26.086  10.069   6.029  0.3461  0.0891 -0.1774
    1DPPC   C2B  478  26.049  10.024   5.573  0.1553 -0.3043  0.0758
    1DPPC   C3B  479  25.973   9.979   5.136 -0.3515  0.0603  0.0560
    1DPPC   C4B  480  25.620   9.828   4.893 -0.2992 -0.1119 -0.1275
    1DPPC   NC3  481  21.376  10.747   7.155  0.0351 -0.0014  0.0038
    1DPPC   PO4  482  20.951  10.990   7.069 -0.1723  0.0183  0.1700
    1DPPC   GL1  483  20.985  10.690   6.766 -0.0959 -0.0065 -0.0244
    1DPPC   GL2  484  21.080  10.963   6.589 -0.0152  0.0582 -0.2490
    1DPPC   C1A  485  20.999  10.339   6.619 -0.1562 -0.1480  0.0859
    1DPPC   C2A  486  20.909  10.206   6.260  0.2493  0.1549  0.0501
    1DPPC   C3A  487  21.062  10.084   5.823 -0.0124  0.2238  0.2398
    1DPPC   C4A  488  21.171  10.119   5.411  0.0261  0.3870  0.2887
    1DPPC   C1B  489  20.901  10.746   6.254 -0.0069  0.0755 -0.0711
    1DPPC   C2B  490  20.759  10.537   5.904 -0.2690 -0.0893  0.3332
    1DPPC   C3B  491  20.715  10.361   5.570  0.1387  0.1209 -0.0923
    1DPPC   C4B  492  20.413  10.076   5.384  0.2069 -0.0870  0.3861
    1DPPC   NC3  493   9.547  26.049   6.118  0.2321 -0.2156 -0.2717
    1DPPC   PO4  494   9.654  26.427   5.848 -0.2237  0.0676 -0.3241
    1DPPC   GL1  495  10.079  26.361   5.644  0.0559  0.1395  0.0738
    1DPPC   GL2  496  10.237  26.538   5.871  0.1060 -0.0800  0.0223
    1DPPC   C1A  497  10.093  26.480   5.170 -0.1646  0.1013  0.0805
    1DPPC   C2A  498  10.376  26.543   4.930 -0.1204  0.0907 -0.1856
    1DPPC   C3A  499  10.663  26.440   4.596  0.2647 -0.0828  0.1600
    1DPPC   C4A  500  10.721  26.574   4.279 -0.0309  0.0259  0.1951
    1DPPC   C1B  501  10.474  26.633   5.424 -0.2917 -0.0622  0.2339
    1DPPC   C2B  502  10.688  26.938   5.162 -0.1491  0.0044  0.4854
    1DPPC   C3B  503  10.873  27.253   5.023  0.1624  0.0878  0.0280
    1DPPC   C4B  504  11.000  27.657   4.837  0.0043  0.0054 -0.1365
    1DPPC   NC3  505  22.275  16.800   6.422  0.1392  0.2451  0.1338
    1DPPC   PO4  506  21.898  16.748   6.186  0.1124 -0.0569 -0.0520
    1DPPC   GL1  507  22.215  16.760   5.804 -0.0381  0.0760 -0.2205
    1DPPC   GL2  508  22.469  16.794   5.884  0.1698  0.0246 -0.1017
    1DPPC   C1A  509  22.229  16.709   5.349  0.0279 -0.0493  0.2755
    1DPPC   C2A  510  22.419  16.631   4.957  0.0395  0.0985  0.0076
    1DPPC   C3A  511  22.493  16.523   4.559 -0.1627  0.2335  0.2755
    1DPPC   C4A  512  22.694  16.160   4.417 -0.0053 -0.1659 -0.0425
    1DPPC   C1B  513  22.825  16.957   5.524  0.1104 -0.2369 -0.3319
    1DPPC   C2B  514  22.969  16.949   5.118  0.2168 -0.2192  0.0982
    1DPPC   C3B  515  22.806  16.833   4.742 -0.1895  0.0430 -0.0444
    1DPPC   C4B  516  22.967  16.601   4.373 -0.1327 -0.2176 -0.1117
    1DPPC   NC3  517   6.683  12.346   6.178 -0.0552 -0.0079 -0.2063
    1DPPC   PO4  518   6.292  12.525   6.014 -0.2208  0.0787 -0.1904
    1DPPC   GL1  519   6.297  12.600   5.507  0.0988 -0.3970  0.0448
    1DPPC   GL2  520   6.037  12.737   5.344  0.1281 -0.1243  0.1507
    1DPPC   C1A  521   6.466  12.439   5.107 -0.2554 -0.1027  0.0266
    1DPPC   C2A  522   6.572  12.491   4.663  0.0091 -0.0059 -0.4585
    1DPPC   C3A  523   6.987  12.580   4.426 -0.2466  0.1531 -0.0403
    1DPPC   C4A  524   7.377  12.494   4.406 -0.3568  0.3402  0.2323
    1DPPC   C1B  525   6.031  12.616   4.901 -0.0915  0.0480 -0.1227
    1DPPC   C2B  526   6.229  12.857   4.545 -0.1072 -0.0875  0.0164
    1DPPC   C3B  527   6.094  12.949   4.184  0.1139  0.2834 -0.1528
    1DPPC   C4B  528   5.871  13.235   3.963  0.3029 -0.4473  0.2199
    1DPPC   NC3  529   7.784  21.486   5.807 -0.1921  0.0065 -0.1044
    1DPPC   PO4  530   7.291  21.414   5.887 -0.0008  0.1514  0.2319
    1DPPC   GL1  531   7.058  21.380   5.515  0.0434 -0.1146  0.0285
    1DPPC   GL2  532   6.720  21.338   5.401  0.0353 -0.0237 -0.2589
    1DPPC   C1A  533   7.141  21.746   5.141 -0.2321 -0.1560 -0.1819
    1DPPC   C2A  534   7.256  21.996   4.741 -0.0011 -0.0973  0.1099
    1DPPC   C3A  535   7.340  22.130   4.318 -0.2208  0.2638  0.1978
    1DPPC   C4A  536   7.472  21.989   4.006 -0.1509  0.0720 -0.3501
    1DPPC   C1B  537   6.916  21.359   4.975 -0.3044 -0.3326  0.0014
    1DPPC   C2B  538   7.345  21.461   4.768 -0.1687  0.0090  0.0480
    1DPPC   C3B  539   7.608  21.277   4.488  0.0759 -0.1962 -0.2019
    1DPPC   C4B  540   7.384  21.000   4.170  0.1846  0.2192  0.0484
    1DPPC   NC3  541  22.804   4.903   7.656  0.0110  0.3836  0.1558
    1DPPC   PO4  542  23.038   4.575   7.624 -0.2779  0.0932 -0.0585
    1DPPC   GL1  543  22.797   4.641   7.219  0.0876  0.0718  0.2468
    1DPPC   GL2  544  22.443   4.802   7.209  0.1871  0.2132  0.0501
    1DPPC   C1A  545  22.600   4.494   6.848 -0.2378 -0.0712  0.0010
    1DPPC   C2A  546  22.462   4.672   6.460 -0.2260 -0.0013  0.1990
    1DPPC   C3A  547  22.442   4.559   6.076 -0.1381  0.0196  0.1095
    1DPPC   C4A  548  22.251   4.662   5.703  0.0768 -0.2398  0.1652
    1DPPC   C1B  549  22.252   4.912   6.918 -0.3783  0.0554 -0.2048
    1DPPC   C2B  550  22.359   5.265   6.558 -0.1558 -0.1420  0.1517
    1DPPC   C3B  551  22.495   5.649   6.449  0.0461 -0.0009  0.2526
    1DPPC   C4B  552  22.679   5.992   6.247  0.1149  0.0078  0.0071
    1DPPC   NC3  553  14.912  12.594   7.052 -0.0083 -0.0881 -0.3297
    1DPPC   PO4  554  14.602  12.383   6.858 -0.0567 -0.1330 -0.2897
    1DPPC   GL1  555  14.860  12.337   6.550 -0.0228  0.3264 -0.1385
    1DPPC   GL2  556  14.779  12.392   6.211  0.3189  0.2000 -0.2969
    1DPPC   C1A  557  15.249  12.545   6.360  0.0785  0.1912 -0.0758
    1DPPC   C2A  558  15.474  12.682   6.017  0.1010 -0.1523  0.1179
    1DPPC   C3A  559  15.572  12.602   5.625  0.1845 -0.0233 -0.3225
    1DPPC   C4A  560  15.844  12.886   5.469  0.1800 -0.0084 -0.3672
    1DPPC   C1B  561  14.952  12.430   5.899  0.0426  0.0962  0.2929
    1DPPC   C2B  562  15.105  12.419   5.490  0.1933 -0.2095  0.4678
    1DPPC   C3B  563  15.138  12.502   5.100  0.1790  0.1812 -0.1436
    1DPPC   C4B  564  15.173  12.175   4.675 -0.0834 -0.1456 -0.4142
    1DPPC   NC3  565  24.218  11.193   7.257 -0.2918  0.1950  0.1712
    1DPPC   PO4  566  24.276  10.830   6.986  0.0171  0.0825  0.2902
    1DPPC   GL1  567  24.230  10.687   6.594  0.0635  0.0066  0.0283
    1DPPC   GL2  568  24.447  10.468   6.498 -0.0763 -0.0689 -0.2194
    1DPPC   C1A  569  24.333  10.925   6.223  0.0221  0.0221 -0.0259
    1DPPC   C2A  570  24.434  11.079   5.811  0.1443 -0.0119 -0.5936
    1DPPC   C3A  571  24.503  11.223   5.370  0.1508 -0.1052 -0.0146
    1DPPC   C4A  572  24.709  11.149   4.945 -0.0624  0.0883  0.1847
    1DPPC   C1B  573  24.343  10.433   6.153  0.2695  0.0295  0.3079
    1DPPC   C2B  574  24.293  10.536   5.676 -0.0432  0.1154 -0.1268
    1DPPC   C3B  575  24.294  10.718   5.282 -0.2281  0.0583 -0.1844
    1DPPC   C4B  576  24.328  10.799   4.809 -0.2524 -0.2181  0.3757
    1DPPC   NC3  577  21.015  22.215   6.097  0.0230  0.3836 -0.0346
    1DPPC   PO4  578  20.946  21.791   5.979  0.0749 -0.0285 -0.0711
    1DPPC   GL1  579  20.832  21.660   5.562 -0.0237  0.1369  0.1921
    1DPPC   GL2  580  20.925  22.015   5.528 -0.0667 -0.3624 -0.1660
    1DPPC   C1A  581  20.692  21.616   5.175  0.1702 -0.1318 -0.0255
    1DPPC   C2A  582  20.701  21.588   4.840 -0.1186 -0.3405  0.0507
    1DPPC   C3A  583  20.734  21.369   4.459  0.0264  0.0837  0.0016
    1DPPC   C4A  584  21.138  21.216   4.271 -0.1470  0.1916 -0.1989
    1DPPC   C1B  585  21.041  21.935   5.096  0.2637  0.3292  0.0859
    1DPPC   C2B  586  21.226  21.803   4.744  0.3029 -0.1104 -0.0100
    1DPPC   C3B  587  21.456  21.652   4.404  0.0519  0.2166  0.7519
    1DPPC   C4B  588  21.590  21.358   4.000 -0.1793 -0.1731 -0.3530
    1DPPC   NC3  589  13.883  16.350   5.884 -0.0498 -0.0047 -0.0653
    1DPPC   PO4  590  13.508  16.155   5.946 -0.1417 -0.0522 -0.1252
    1DPPC   GL1  591  13.616  16.033   5.524 -0.1284  0.3654 -0.0343
    1DPPC   GL2  592  13.919  16.117   5.361  0.0428 -0.0656 -0.0115
    1DPPC   C1A  593  13.443  15.971   5.160  0.0634 -0.0052  0.0212
    1DPPC   C2A  594  13.365  16.126   4.713  0.1170 -0.3493  0.0500
    1DPPC   C3A  595  13.767  16.478   4.482 -0.3724 -0.2198  0.4152
    1DPPC   C4A  596  14.157  16.384   4.341  0.0934  0.0400 -0.0821
    1DPPC   C1B  597  13.859  16.126   4.827 -0.2135 -0.4817 -0.2140
    1DPPC   C2B  598  13.757  16.002   4.404  0.1739  0.0177 -0.0700
    1DPPC   C3B  599  13.891  15.933   3.937  0.0698  0.0306 -0.3575
    1DPPC   C4B  600  14.015  16.051   3.509  0.1002 -0.2090  0.2831
    1DPPC   NC3  601  21.954  15.975   6.838 -0.2493 -0.2253 -0.0340
    1DPPC   PO4  602  21.963  15.627   6.776  0.0552 -0.0673 -0.0573
    1DPPC   GL1  603  22.140  15.528   6.335 -0.1434  0.1497  0.6977
    1DPPC   GL2  604  21.948  15.745   6.149 -0.0760 -0.2425 -0.1098
    1DPPC   C1A  605  22.308  15.314   6.013 -0.2858 -0.0045 -0.0248
    1DPPC   C2A  606  22.218  15.255   5.502 -0.0515 -0.3116 -0.1198
    1DPPC   C3A  607  21.905  15.140   5.228  0.1830  0.1631  0.1036
    1DPPC   C4A  608  21.629  14.906   5.047  0.0897  0.1007 -0.1806
    1DPPC   C1B  609  22.051  15.734   5.688 -0.3596  0.2450  0.2687
    1DPPC   C2B  610  22.046  15.695   5.256 -0.2801 -0.0597  0.0033
    1DPPC   C3B  611  22.119  15.616   4.829  0.1149 -0.1648  0.6075
    1DPPC   C4B  612  22.312  15.494   4.458  0.2002  0.0185  0.0141
    1DPPC   NC3  613  26.723   5.538   6.876  0.4854 -0.1075 -0.1431
    1DPPC   PO4  614  26.915   5.808   6.647 -0.4027  0.0169 -0.0467
    1DPPC   GL1  615  26.863   5.890   6.225  0.0823 -0.0175 -0.0629
    1DPPC   GL2  616  27.194   5.918   6.114  0.0272 -0.2657  0.2117
    1DPPC   C1A  617  26.540   6.213   6.106  0.3711 -0.0311 -0.0413
    1DPPC   C2A  618  26.220   6.444   5.799 -0.0162 -0.1110  0.1594
    1DPPC   C3A  619  26.267   6.781   5.564 -0.1002  0.0405 -0.2201
    1DPPC   C4A  620  26.084   6.841   5.085  0.0516  0.0076 -0.2588
    1DPPC   C1B  621  27.239   6.031   5.562  0.0388  0.1253 -0.2150
    1DPPC   C2B  622  27.002   6.031   5.134  0.1262  0.1412  0.1904
    1DPPC   C3B  623  27.076   5.891   4.649 -0.0788 -0.1899 -0.3423
    1DPPC   C4B  624  26.879   5.660   4.249 -0.2196 -0.1487 -0.1316
    1DPPC   NC3  625  17.819   9.869   7.795 -0.2655  0.0675 -0.0574
    1DPPC   PO4  626  17.865   9.594   7.386  0.0354 -0.1267 -0.0977
    1DPPC   GL1  627  17.897   9.805   7.105  0.2103 -0.0039  0.0179
    1DPPC   GL2  628  17.985   9.588   6.858 -0.0011  0.2118  0.1645
    1DPPC   C1A  629  17.705  10.014   6.667 -0.0524  0.1386  0.1955
    1DPPC   C2A  630  17.588   9.901   6.234 -0.0581 -0.1433  0.2641
    1DPPC   C3A  631  17.567   9.910   5.843 -0.3135  0.0795  0.3021
    1DPPC   C4A  632  17.894   9.950   5.463  0.3879 -0.3372  0.2444
    1DPPC   C1B  633  17.859   9.549   6.417 -0.1985 -0.3025 -0.2106
    1DPPC   C2B  634  17.737   9.482   6.013  0.0885  0.3040  0.2066
    1DPPC   C3B  635  17.754   9.409   5.660  0.1495 -0.3465  0.0150
    1DPPC   C4B  636  18.135   9.400   5.424  0.3692 -0.5507  0.0466
    1DPPC   NC3  637  19.997  18.978   6.050 -0.2502 -0.1134  0.4038
    1DPPC   PO4  638  19.647  18.663   5.899  0.2899  0.0859  0.1825
    1DPPC   GL1  639  19.457  18.627   5.565 -0.1690 -0.1138  0.3102
    1DPPC   GL2  640  19.227  18.408   5.550 -0.0019 -0.0873 -0.0724
    1DPPC   C1A  641  19.649  18.708   5.161  0.2582  0.1916 -0.0953
    1DPPC   C2A  642  19.744  18.595   4.710  0.0379 -0.2250 -0.1101
    1DPPC   C3A  643  19.537  18.581   4.243  0.1060  0.0661 -0.3344
    1DPPC   C4A  644  19.371  18.603   3.793  0.0203 -0.0533  0.2484
    1DPPC   C1B  645  19.307  18.276   5.211  0.0310  0.0936  0.0126
    1DPPC   C2B  646  19.341  18.218   4.785  0.0132  0.2034  0.0360
    1DPPC   C3B  647  19.253  18.160   4.362 -0.0777  0.0720 -0.0975
    1DPPC   C4B  648  18.957  17.931   4.193 -0.1660 -0.0246 -0.1542
    1DPPC   NC3  649  23.348   9.916   7.138  0.1497  0.0323 -0.1172
    1DPPC   PO4  650  23.398   9.538   7.378 -0.1473 -0.1622  0.2693
    1DPPC   GL1  651  23.109   9.532   6.972  0.0131  0.1607  0.2068
    1DPPC   GL2  652  23.273   9.470   6.614  0.3707 -0.2540  0.0915
    1DPPC   C1A  653  22.815   9.205   6.740 -0.1586  0.0982  0.0126
    1DPPC   C2A  654  22.751   9.272   6.313 -0.0081 -0.1453 -0.1611
    1DPPC   C3A  655  22.883   9.162   5.908  0.1011 -0.0228  0.2358
    1DPPC   C4A  656  23.023   9.223   5.499  0.1145 -0.0053  0.2735
    1DPPC   C1B  657  23.317   9.505   6.174  0.0131 -0.1350 -0.0024
    1DPPC   C2B  658  23.226   9.561   5.830  0.0299  0.1976 -0.0581
    1DPPC   C3B  659  23.192   9.776   5.512 -0.0670 -0.1401  0.0219
    1DPPC   C4B  660  23.386   9.897   5.159  0.0973  0.0375 -0.1042
    1DPPC   NC3  661  16.007  11.314   7.688 -0.0494 -0.3663 -0.3665
    1DPPC   PO4  662  16.306  11.402   7.367  0.1984  0.2328 -0.0009
    1DPPC   GL1  663  16.344  11.098   6.955 -0.0717  0.1416  0.2388
    1DPPC   GL2  664  16.558  11.060   6.763  0.0283  0.0199 -0.1066
    1DPPC   C1A  665  15.989  10.992   6.764  0.1110 -0.2703  0.0817
    1DPPC   C2A  666  16.002  10.918   6.245  0.1472 -0.2092 -0.0678
    1DPPC   C3A  667  16.099  10.901   5.825  0.1573 -0.2355 -0.0322
    1DPPC   C4A  668  16.206  10.951   5.431  0.1049  0.1040 -0.1437
    1DPPC   C1B  669  16.511  10.905   6.424  0.2717 -0.0472  0.1783
    1DPPC   C2B  670  16.677  10.876   6.051 -0.1684 -0.0480 -0.0548
    1DPPC   C3B  671  16.721  10.761   5.642 -0.1503  0.3195  0.0361
    1DPPC   C4B  672  16.916  10.759   5.227 -0.2274  0.0910  0.4235
    1DPPC   NC3  673   4.184  27.557   5.729 -0.0016  0.5469  0.0929
    1DPPC   PO4  674   4.569  27.195   5.589  0.1561 -0.0683 -0.1127
    1DPPC   GL1  675   4.446  27.561   5.273 -0.0387 -0.1846  0.1904
    1DPPC   GL2  676   4.107  27.603   5.231 -0.1408  0.2497 -0.0592
    1DPPC   C1A  677   4.460  27.929   5.195  0.2667 -0.0520 -0.2546
    1DPPC   C2A  678   4.594  28.179   4.913 -0.0269 -0.0062  0.3196
    1DPPC   C3A  679   4.701  28.581   4.951 -0.0377 -0.2270  0.1513
    1DPPC   C4A  680   5.023  28.660   5.302  0.0948 -0.2047 -0.3384
    1DPPC   C1B  681   3.934  27.842   5.040  0.0152  0.2190 -0.0865
    1DPPC   C2B  682   3.780  27.965   4.662 -0.0330  0.1267 -0.1147
    1DPPC   C3B  683   3.806  28.183   4.290 -0.2092  0.1246 -0.1431
    1DPPC   C4B  684   3.855  28.534   4.035  0.1770 -0.0673 -0.0102
    1DPPC   NC3  685  20.350  17.513   5.994  0.2143 -0.2092 -0.2388
    1DPPC   PO4  686  20.428  17.954   5.923  0.3568  0.0582 -0.1998
    1DPPC   GL1  687  20.627  17.845   5.522  0.2593  0.2688 -0.2851
    1DPPC   GL2  688  20.557  17.582   5.510 -0.1152  0.1149 -0.0647
    1DPPC   C1A  689  20.888  17.881   5.200 -0.2148 -0.2291  0.3242
    1DPPC   C2A  690  21.043  17.759   4.773  0.1225 -0.0226  0.1030
    1DPPC   C3A  691  21.086  17.810   4.411 -0.0276 -0.3069  0.1804
    1DPPC   C4A  692  21.225  17.630   4.035 -0.1819  0.0327  0.0096
    1DPPC   C1B  693  20.611  17.398   5.137 -0.0021 -0.1176 -0.0686
    1DPPC   C2B  694  20.728  17.062   4.840  0.1492  0.2219 -0.1806
    1DPPC   C3B  695  20.747  16.772   4.505  0.0098 -0.3635  0.2950
    1DPPC   C4B  696  20.982  16.451   4.369 -0.1735 -0.1664 -0.2246
    1DPPC   NC3  697  27.876   9.529   6.849 -0.0567 -0.0361 -0.0401
    1DPPC   PO4  698  27.957   9.952   6.647  0.1086  0.1492  0.2093
    1DPPC   GL1  699  27.916  10.000   6.253 -0.0698 -0.1311  0.1939
    1DPPC   GL2  700  27.557   9.983   6.069 -0.0734  0.0203  0.0629
    1DPPC   C1A  701  27.876  10.290   5.885 -0.2450 -0.2192  0.3393
    1DPPC   C2A  702  27.864  10.353   5.415  0.2620 -0.0976 -0.0904
    1DPPC   C3A  703  27.474  10.297   5.188  0.1667 -0.0471  0.4200
    1DPPC   C4A  704  27.279  10.454   4.763  0.1280 -0.0361 -0.0093
    1DPPC   C1B  705  27.487  10.109   5.628  0.0861  0.2511 -0.3447
    1DPPC   C2B  706  27.258   9.815   5.337 -0.1014  0.2682  0.0931
    1DPPC   C3B  707  27.209   9.492   5.051  0.0667 -0.1284  0.1515
    1DPPC   C4B  708  27.172   9.428   4.616 -0.0170  0.0732 -0.0772
    1DPPC   NC3  709  16.431  12.389   7.628 -0.0069  0.1812  0.3508
    1DPPC   PO4  710  16.774  12.098   7.428  0.1794 -0.0491  0.2158
    1DPPC   GL1  711  16.816  11.959   6.966  0.2343  0.0296 -0.0114
    1DPPC   GL2  712  17.132  11.838   6.738 -0.0977  0.1887 -0.0287
    1DPPC   C1A  713  16.558  11.983   6.646  0.2584  0.0039  0.0905
    1DPPC   C2A  714  16.540  11.802   6.263  0.2358 -0.1011 -0.0897
    1DPPC   C3A  715  16.536  11.726   5.779  0.0168 -0.0824 -0.0323
    1DPPC   C4A  716  16.497  11.626   5.359 -0.0916  0.1959 -0.1679
    1DPPC   C1B  717  17.011  11.885   6.298 -0.2482 -0.1607  0.0322
    1DPPC   C2B  718  16.861  12.022   5.964 -0.0808  0.3448  0.1032
    1DPPC   C3B  719  16.940  12.025   5.532  0.3049 -0.1162 -0.0321
    1DPPC   C4B  720  16.990  12.285   5.095 -0.0811 -0.3357  0.1322
    1DPPC   NC3  721  17.572  14.927   6.488  0.0466  0.3516  0.0007
    1DPPC   PO4  722  17.442  14.494   6.430  0.2843 -0.0073  0.1163
    1DPPC   GL1  723  17.614  14.597   6.054 -0.1966 -0.3054 -0.3012
    1DPPC   GL2  724  17.473  14.786   5.982  0.4385 -0.1255 -0.2040
    1DPPC   C1A  725  17.735  14.461   5.677 -0.1086 -0.2039  0.1352
    1DPPC   C2A  726  17.759  14.371   5.221  0.0060  0.0833 -0.0358
    1DPPC   C3A  727  18.187  14.368   4.948 -0.2798 -0.1049  0.1208
    1DPPC   C4A  728  18.502  14.132   4.795 -0.0087  0.1298  0.0912
    1DPPC   C1B  729  17.371  14.803   5.548 -0.1863  0.0067 -0.2975
    1DPPC   C2B  730  17.254  14.848   5.172  0.4067 -0.2504  0.1419
    1DPPC   C3B  731  17.499  14.757   4.884  0.0959  0.0270 -0.3518
    1DPPC   C4B  732  17.872  14.595   4.599  0.0380 -0.0282 -0.0083
    1DPPC   NC3  733   4.106  22.710   6.015  0.1464 -0.1295 -0.3231
    1DPPC   PO4  734   3.633  22.740   5.943 -0.2291  0.2837 -0.3131
    1DPPC   GL1  735   3.479  22.663   5.630  0.1503 -0.2351 -0.0251
    1DPPC   GL2  736   3.536  22.839   5.441  0.0591  0.3624  0.0274
    1DPPC   C1A  737   3.083  22.596   5.409  0.0491  0.0716 -0.3204
    1DPPC   C2A  738   2.942  22.547   5.021 -0.2279 -0.1280 -0.1676
    1DPPC   C3A  739   2.648  22.485   4.684  0.1535  0.0283  0.3673
    1DPPC   C4A  740   2.263  22.584   4.392  0.0216 -0.1022  0.2189
    1DPPC   C1B  741   3.910  22.939   5.057  0.1233 -0.0155 -0.0026
    1DPPC   C2B  742   4.072  22.920   4.680 -0.0209  0.1345  0.1933
    1DPPC   C3B  743   3.646  22.849   4.474 -0.3185 -0.0210  0.2287
    1DPPC   C4B  744   3.583  22.867   4.026  0.0166  0.2346 -0.3201
    1DPPC   NC3  745  23.011  16.351   6.408 -0.0765 -0.4552  0.0528
    1DPPC   PO4  746  22.787  16.794   6.312  0.0585  0.2611 -0.0447
    1DPPC   GL1  747  23.011  16.731   5.932  0.0516 -0.0821  0.3867
    1DPPC   GL2  748  23.282  16.927   5.874  0.0565 -0.0147 -0.0239
    1DPPC   C1A  749  23.074  16.559   5.562  0.0187 -0.1001  0.0565
    1DPPC   C2A  750  23.225  16.437   5.221 -0.2341 -0.0874  0.3675
    1DPPC   C3A  751  23.368  16.566   4.801 -0.0214  0.1541  0.2130
    1DPPC   C4A  752  23.274  16.982   4.753  0.0720 -0.1926  0.2057
    1DPPC   C1B  753  23.761  16.962   5.811  0.2277  0.1175 -0.0917
    1DPPC   C2B  754  23.925  16.927   5.420  0.3842 -0.1181 -0.3077
    1DPPC   C3B  755  23.730  16.942   4.983  0.3088 -0.1731 -0.0917
    1DPPC   C4B  756  23.722  16.953   4.576 -0.2556 -0.0626 -0.1251
    1DPPC   NC3  757  23.839   9.698   7.187 -0.4512  0.1053  0.1095
    1DPPC   PO4  758  23.868  10.086   7.085 -0.0398  0.1030  0.0816
    1DPPC   GL1  759  23.599  10.150   6.758 -0.2509  0.3865 -0.1206
    1DPPC   GL2  760  23.798  10.162   6.537 -0.1596  0.1547  0.2722
    1DPPC   C1A  761  23.417   9.966   6.350  0.2510  0.1242  0.1480
    1DPPC   C2A  762  23.473  10.012   5.944  0.1264 -0.1334  0.0008
    1DPPC   C3A  763  23.506  10.220   5.549 -0.1262 -0.3093 -0.1851
    1DPPC   C4A  764  23.269  10.366   5.139 -0.4413  0.1580 -0.2034
    1DPPC   C1B  765  23.896  10.214   6.182  0.0079  0.0944  0.0281
    1DPPC   C2B  766  23.933  10.176   5.752  0.1673 -0.0152 -0.1277
    1DPPC   C3B  767  23.990  10.239   5.314  0.3692 -0.1989 -0.1818
    1DPPC   C4B  768  23.752  10.290   5.018 -0.0296  0.0110  0.2929
    1DPPC   NC3  769   7.899  20.730   6.199  0.1486 -0.0141 -0.1029
    1DPPC   PO4  770   7.655  20.872   5.974 -0.2331 -0.1271  0.1145
    1DPPC   GL1  771   7.673  20.883   5.443  0.0603  0.2764  0.2041
    1DPPC   GL2  772   7.523  21.167   5.559 -0.0320 -0.0668  0.1080
    1DPPC   C1A  773   7.616  20.961   5.068 -0.0539 -0.1092  0.1150
    1DPPC   C2A  774   7.680  20.870   4.674  0.1847  0.1152  0.0244
    1DPPC   C3A  775   7.823  20.455   4.365 -0.0998  0.1436 -0.1006
    1DPPC   C4A  776   7.760  20.215   3.969  0.2846 -0.4583  0.0761
    1DPPC   C1B  777   7.614  21.437   5.189  0.0380 -0.2016 -0.3171
    1DPPC   C2B  778   8.029  21.200   4.865  0.2746 -0.0061 -0.1506
    1DPPC   C3B  779   8.165  20.846   4.748 -0.0164  0.3308  0.1027
    1DPPC   C4B  780   8.424  20.875   4.318 -0.3680  0.0573  0.0731
    1DPPC   NC3  781  22.985  10.206   6.908  0.0391  0.0574 -0.0136
    1DPPC   PO4  782  22.637   9.891   6.977  0.2202  0.2730 -0.0541
    1DPPC   GL1  783  22.554   9.643   6.690  0.1331 -0.2408 -0.0820
    1DPPC   GL2  784  22.842   9.787   6.556  0.1202  0.2562 -0.2005
    1DPPC   C1A  785  22.317   9.482   6.378  0.0180 -0.1125 -0.1133
    1DPPC   C2A  786  22.431   9.420   5.945 -0.0322 -0.0160  0.0589
    1DPPC   C3A  787  22.443   9.294   5.507  0.0115 -0.2105 -0.1764
    1DPPC   C4A  788  22.455   9.005   5.188  0.0827  0.0711 -0.0868
    1DPPC   C1B  789  22.955   9.793   6.205  0.0979  0.1690 -0.1819
    1DPPC   C2B  790  22.799   9.731   5.810  0.3659 -0.2253  0.1293
    1DPPC   C3B  791  22.683   9.743   5.386 -0.0898  0.0348 -0.0210
    1DPPC   C4B  792  22.765   9.590   4.927 -0.3827 -0.1188  0.0834
    1DPPC   NC3  793  20.087  10.122   7.634 -0.2803 -0.1024 -0.0152
    1DPPC   PO4  794  20.212  10.407   7.254  0.1895 -0.0904 -0.2152
    1DPPC   GL1  795  20.078  10.295   6.944 -0.0135 -0.1493 -0.4360
    1DPPC   GL2  796  20.179  10.030   6.740 -0.3443 -0.0890  0.1001
    1DPPC   C1A  797  19.849  10.210   6.425  0.1001 -0.1669  0.0737
    1DPPC   C2A  798  19.879   9.989   6.038 -0.1127 -0.0619 -0.0185
    1DPPC   C3A  799  19.930   9.797   5.614 -0.1614  0.2482  0.1587
    1DPPC   C4A  800  20.301   9.649   5.224  0.0234  0.2068 -0.0456
    1DPPC   C1B  801  20.035   9.654   6.458  0.0106 -0.3280  0.0337
    1DPPC   C2B  802  20.001   9.461   6.036  0.1365 -0.0160  0.1403
    1DPPC   C3B  803  20.098   9.241   5.624 -0.0188  0.0693 -0.0050
    1DPPC   C4B  804  20.226   8.987   5.149 -0.1730 -0.1128 -0.3657
    1DPPC   NC3  805  23.025  13.560   6.895 -0.2142 -0.0519  0.2817
    1DPPC   PO4  806  22.655  13.650   6.826  0.2146  0.2038  0.1709
    1DPPC   GL1  807  22.414  13.623   6.452  0.1704 -0.0373  0.0925
    1DPPC   GL2  808  22.394  13.990   6.413 -0.0247 -0.1403 -0.0283
    1DPPC   C1A  809  22.293  13.386   6.060 -0.1713 -0.1265 -0.0072
    1DPPC   C2A  810  22.400  13.219   5.671  0.1480 -0.0727 -0.0368
    1DPPC   C3A  811  22.502  13.075   5.364  0.1350 -0.0907  0.1252
    1DPPC   C4A  812  22.239  12.907   4.963  0.0709  0.1495  0.0866
    1DPPC   C1B  813  22.442  13.837   5.965 -0.1321 -0.1122  0.2297
    1DPPC   C2B  814  22.538  13.719   5.632  0.2443  0.2676  0.3577
    1DPPC   C3B  815  22.545  13.599   5.213  0.0933  0.2489 -0.2302
    1DPPC   C4B  816  22.863  13.735   4.988  0.0555 -0.1967  0.0535
    1DPPC   NC3  817  17.282  13.627   7.016 -0.2537  0.2917 -0.1975
    1DPPC   PO4  818  16.989  13.835   6.798 -0.0130  0.2337  0.1581
    1DPPC   GL1  819  17.203  13.909   6.401 -0.1736  0.0338 -0.1328
    1DPPC   GL2  820  17.552  14.026   6.361 -0.0638 -0.0091 -0.2675
    1DPPC   C1A  821  17.248  13.744   5.956 -0.0695 -0.1070 -0.0591
    1DPPC   C2A  822  17.011  13.682   5.486 -0.0920  0.0399  0.5493
    1DPPC   C3A  823  17.149  13.453   5.066 -0.1350  0.0245 -0.0052
    1DPPC   C4A  824  17.329  13.190   4.763  0.3559  0.3183 -0.0400
    1DPPC   C1B  825  17.686  14.006   6.015 -0.2374 -0.1976 -0.3155
    1DPPC   C2B  826  17.601  13.811   5.604  0.0333  0.3508 -0.1488
    1DPPC   C3B  827  17.536  13.834   5.264 -0.2764  0.1648 -0.0544
    1DPPC   C4B  828  17.338  13.940   4.837  0.1354 -0.1886 -0.0909
    1DPPC   NC3  829  20.076  17.031   6.064  0.1583 -0.1741 -0.0249
    1DPPC   PO4  830  19.801  17.329   5.956  0.2230  0.1852  0.0569
    1DPPC   GL1  831  19.592  17.409   5.631 -0.1836 -0.2754 -0.1018
    1DPPC   GL2  832  19.452  17.585   5.580  0.1338 -0.2119  0.0110
    1DPPC   C1A  833  19.676  17.236   5.226  0.0619  0.3229 -0.0014
    1DPPC   C2A  834  19.727  17.130   4.794  0.2966 -0.1269 -0.3632
    1DPPC   C3A  835  19.498  17.142   4.416 -0.3990 -0.0691  0.1745
    1DPPC   C4A  836  19.413  16.891   4.101 -0.2515 -0.1916  0.0198
    1DPPC   C1B  837  19.685  17.740   5.237 -0.0291 -0.0622  0.1483
    1DPPC   C2B  838  19.784  17.664   4.827  0.1649  0.3892 -0.0431
    1DPPC   C3B  839  19.989  17.443   4.436 -0.1047  0.2223 -0.1664
    1DPPC   C4B  840  20.226  17.456   4.160 -0.1155  0.0456  0.4744
    1DPPC   NC3  841  17.271   8.582   7.813  0.1062 -0.0312 -0.0089
    1DPPC   PO4  842  16.858   8.606   7.746  0.1132  0.1472 -0.1677
    1DPPC   GL1  843  16.983   8.556   7.403  0.1912 -0.0171  0.3233
    1DPPC   GL2  844  16.756   8.398   7.257 -0.3476  0.2361  0.0498
    1DPPC   C1A  845  16.891   8.839   7.012 -0.3848  0.0083  0.1113
    1DPPC   C2A  846  16.741   8.997   6.698  0.1984  0.0213  0.1124
    1DPPC   C3A  847  16.520   9.037   6.371 -0.0872 -0.1856 -0.1783
    1DPPC   C4A  848  16.393   9.023   5.968 -0.0706 -0.1069  0.0430
    1DPPC   C1B  849  16.835   8.305   6.893 -0.2368  0.1050  0.2689
    1DPPC   C2B  850  16.773   8.054   6.495 -0.1268  0.3638 -0.2234
    1DPPC   C3B  851  16.786   8.057   6.135  0.0319  0.0315 -0.2389
    1DPPC   C4B  852  16.958   8.191   5.773  0.1692  0.3311 -0.1432
    1DPPC   NC3  853  26.661  12.401   7.156  0.0291  0.1625 -0.1433
    1DPPC   PO4  854  27.093  12.603   6.926 -0.1628  0.1074  0.1397
    1DPPC   GL1  855  27.066  12.622   6.526  0.2970 -0.1800 -0.1466
    1DPPC   GL2  856  26.672  12.514   6.558  0.2727 -0.0031 -0.1616
    1DPPC   C1A  857  27.251  12.539   6.144 -0.3699  0.0662  0.2200
    1DPPC   C2A  858  27.134  12.383   5.798 -0.1801  0.1629  0.3756
    1DPPC   C3A  859  27.179  12.337   5.400  0.2046  0.0676  0.0872
    1DPPC   C4A  860  27.194  12.166   4.978  0.1390 -0.0905 -0.2213
    1DPPC   C1B  861  26.681  12.557   6.093 -0.1285  0.0492 -0.0652
    1DPPC   C2B  862  26.704  12.547   5.621 -0.1906  0.1134  0.0625
    1DPPC   C3B  863  26.722  12.510   5.182 -0.1869 -0.2884 -0.0400
    1DPPC   C4B  864  26.415  12.282   4.948 -0.0492 -0.0689  0.0870
    1DPPC   NC3  865  18.140  24.845   5.848 -0.1480  0.0341 -0.0373
    1DPPC   PO4  866  18.411  24.379   5.891 -0.1763 -0.0893 -0.0174
    1DPPC   GL1  867  18.440  24.493   5.405 -0.0110 -0.0359 -0.0580
    1DPPC   GL2  868  18.559  24.888   5.379 -0.1334  0.0593 -0.2950
    1DPPC   C1A  869  18.271  24.564   5.023  0.1290  0.2804  0.0785
    1DPPC   C2A  870  18.204  24.721   4.630  0.0436  0.2554  0.0299
    1DPPC   C3A  871  18.290  24.724   4.244  0.1276  0.1463 -0.1528
    1DPPC   C4A  872  18.676  24.596   3.981  0.1769  0.0880  0.1378
    1DPPC   C1B  873  18.487  25.087   4.968 -0.2026 -0.3118  0.1505
    1DPPC   C2B  874  18.449  25.144   4.603  0.1326 -0.0970  0.3252
    1DPPC   C3B  875  18.001  25.126   4.259 -0.3178  0.0750 -0.1143
    1DPPC   C4B  876  17.608  25.078   3.967  0.1440  0.1089  0.2301
    1DPPC   NC3  877   0.277  25.966   5.952  0.1642  0.2614  0.0579
    1DPPC   PO4  878   0.051  26.268   5.633 -0.4234  0.0195 -0.0890
    1DPPC   GL1  879   0.176  26.523   5.405  0.0731  0.2100  0.1359
    1DPPC   GL2  880   0.353  26.759   5.514  0.1315  0.0025  0.0912
    1DPPC   C1A  881   0.065  26.766   5.092 -0.0530  0.3476 -0.1459
    1DPPC   C2A  882   0.111  27.040   4.757  0.0242  0.1644  0.0594
    1DPPC   C3A  883  29.710  27.181   4.490 -0.0580  0.0867  0.1449
    1DPPC   C4A  884  29.607  26.954   4.090 -0.2272  0.2387 -0.1996
    1DPPC   C1B  885   0.418  27.105   5.151 -0.1273  0.1131  0.1325
    1DPPC   C2B  886   0.572  27.095   4.767 -0.0929 -0.0111 -0.2352
    1DPPC   C3B  887   0.566  27.399   4.398 -0.2916  0.1160 -0.0854
    1DPPC   C4B  888   0.729  27.682   4.070 -0.0056  0.0216  0.0630
    1DPPC   NC3  889  16.331   4.073   8.206 -0.3445 -0.3235 -0.0622
    1DPPC   PO4  890  16.096   4.505   8.159  0.1900 -0.1215 -0.1406
    1DPPC   GL1  891  16.310   4.318   7.761  0.2586  0.0290 -0.0893
    1DPPC   GL2  892  15.989   4.385   7.538  0.1006  0.0628  0.3322
    1DPPC   C1A  893  16.426   4.339   7.329 -0.0385 -0.1517  0.3009
    1DPPC   C2A  894  16.465   4.309   6.918  0.3772  0.0389  0.4255
    1DPPC   C3A  895  16.264   4.296   6.502  0.0154  0.0973  0.0802
    1DPPC   C4A  896  15.998   4.258   6.174  0.0933 -0.1202  0.2287
    1DPPC   C1B  897  15.788   4.266   7.166 -0.0528 -0.0827  0.0672
    1DPPC   C2B  898  15.806   4.402   6.731  0.0219  0.3521 -0.0754
    1DPPC   C3B  899  15.568   4.409   6.469  0.0110 -0.1032 -0.1212
    1DPPC   C4B  900  15.316   4.629   6.219 -0.3599  0.2956  0.1748
    1DPPC   NC3  901  20.861  18.799   5.917  0.1038 -0.0717  0.1387
    1DPPC   PO4  902  20.530  19.102   5.969  0.0512  0.1051 -0.2657
    1DPPC   GL1  903  20.563  19.096   5.491  0.0653 -0.0889 -0.3149
    1DPPC   GL2  904  20.657  18.767   5.389 -0.0821 -0.1455  0.3788
    1DPPC   C1A  905  20.761  19.198   5.232 -0.1497  0.0037 -0.0085
    1DPPC   C2A  906  20.809  19.139   4.770  0.1705 -0.0281 -0.1880
    1DPPC   C3A  907  20.882  19.020   4.385  0.0007  0.1418 -0.1661
    1DPPC   C4A  908  21.025  18.873   3.935 -0.4386 -0.2389  0.2634
    1DPPC   C1B  909  20.750  18.712   5.038  0.0217  0.2131  0.0276
    1DPPC   C2B  910  20.723  18.603   4.605  0.0698  0.1251  0.1788
    1DPPC   C3B  911  20.588  18.564   4.195 -0.0236 -0.1724  0.0125
    1DPPC   C4B  912  20.467  18.777   3.793  0.0935  0.2478  0.3761
    1DPPC   NC3  913  20.479   8.097   7.758  0.1242  0.0756 -0.1202
    1DPPC   PO4  914  20.165   8.400   7.750 -0.0594  0.0113 -0.2615
    1DPPC   GL1  915  19.996   8.158   7.458 -0.2213 -0.2437 -0.0152
    1DPPC   GL2  916  19.860   8.337   7.208  0.1649  0.1256  0.1124
    1DPPC   C1A  917  19.764   7.864   7.102 -0.4288 -0.0675  0.2672
    1DPPC   C2A  918  19.856   7.670   6.726 -0.1616 -0.0620 -0.0286
    1DPPC   C3A  919  19.855   7.711   6.319  0.2375 -0.2447 -0.0944
    1DPPC   C4A  920  19.645   7.559   5.956  0.0144 -0.0972 -0.1954
    1DPPC   C1B  921  20.135   8.106   6.939 -0.2644 -0.0113  0.3763
    1DPPC   C2B  922  20.397   7.971   6.606 -0.0675 -0.0455  0.1106
    1DPPC   C3B  923  20.324   7.881   6.231  0.1882  0.2213  0.2385
    1DPPC   C4B  924  20.116   7.835   5.854 -0.0290  0.0413 -0.0023
    1DPPC   NC3  925  24.898  13.481   6.879 -0.0583 -0.2899 -0.0412
    1DPPC   PO4  926  24.763  13.882   6.923 -0.2268 -0.1679 -0.4714
    1DPPC   GL1  927  24.556  14.020   6.588  0.1451 -0.3444  0.0680
    1DPPC   GL2  928  24.187  14.114   6.559  0.0186  0.0364  0.0235
    1DPPC   C1A  929  24.559  13.942   6.122  0.3203 -0.1250 -0.1274
    1DPPC   C2A  930  24.603  13.808   5.709 -0.0820  0.0773 -0.0261
    1DPPC   C3A  931  24.470  13.710   5.323 -0.1631 -0.3027  0.0967
    1DPPC   C4A  932  24.290  13.804   5.021 -0.2995  0.2315  0.1528
    1DPPC   C1B  933  24.062  14.288   6.165  0.1674 -0.0472 -0.0663
    1DPPC   C2B  934  24.142  14.173   5.828 -0.1900 -0.0024 -0.1451
    1DPPC   C3B  935  24.151  14.016   5.475 -0.1364 -0.5350 -0.1617
    1DPPC   C4B  936  24.516  14.247   5.253 -0.0473  0.0690 -0.1305
    1DPPC   NC3  937  26.796  12.000   6.856  0.2046 -0.1372  0.0357
    1DPPC   PO4  938  26.472  11.926   7.035 -0.0522 -0.2650  0.4145
    1DPPC   GL1  939  26.228  12.161   6.687  0.0347  0.2087  0.0107
    1DPPC   GL2  940  25.952  12.225   6.625 -0.0721 -0.0089 -0.4138
    1DPPC   C1A  941  26.278  12.382   6.284  0.1771  0.1168  0.0692
    1DPPC   C2A  942  26.249  12.334   5.835  0.0965 -0.4787  0.1514
    1DPPC   C3A  943  26.191  12.465   5.377  0.1206  0.1988 -0.0762
    1DPPC   C4A  944  25.952  12.873   5.229 -0.2096  0.0080 -0.1626
    1DPPC   C1B  945  25.985  11.948   6.295 -0.2242  0.0883 -0.0188
    1DPPC   C2B  946  26.024  11.923   5.882  0.2381  0.2068 -0.0244
    1DPPC   C3B  947  26.026  12.006   5.433 -0.2185  0.0063 -0.3347
    1DPPC   C4B  948  26.232  11.828   5.086 -0.0291 -0.1979 -0.0157
    1DPPC   NC3  949  19.222  19.365   6.275 -0.0932 -0.0399 -0.1051
    1DPPC   PO4  950  19.710  19.340   6.308  0.0816 -0.2060  0.2508
    1DPPC   GL1  951  19.914  19.478   5.953  0.1621  0.2815 -0.0162
    1DPPC   GL2  952  20.216  19.432   5.807  0.0208  0.0682  0.0783
    1DPPC   C1A  953  19.790  19.389   5.488 -0.0188  0.0576 -0.3134
    1DPPC   C2A  954  19.902  19.521   5.076  0.2772  0.0640 -0.3655
    1DPPC   C3A  955  19.993  19.468   4.682 -0.2020  0.2087 -0.0158
    1DPPC   C4A  956  19.956  19.267   4.298  0.0908  0.2644 -0.0926
    1DPPC   C1B  957  20.292  19.471   5.452  0.1711 -0.0282  0.4423
    1DPPC   C2B  958  20.396  19.389   4.955  0.0230 -0.1665  0.0830
    1DPPC   C3B  959  20.499  19.382   4.503 -0.0165  0.1532  0.3056
    1DPPC   C4B  960  20.416  19.204   4.161 -0.3434  0.1036  0.1149
    1DPPC   NC3  961   1.752  25.113   5.726 -0.0222  0.3025  0.0783
    1DPPC   PO4  962   1.781  24.633   5.849 -0.1309 -0.0363  0.3156
    1DPPC   GL1  963   1.892  24.720   5.416  0.0012  0.3381 -0.1465
    1DPPC   GL2  964   1.608  24.879   5.298 -0.0434 -0.1583  0.0414
    1DPPC   C1A  965   1.826  24.553   4.999  0.1332 -0.0558  0.0671
    1DPPC   C2A  966   1.627  24.633   4.529  0.1590  0.3096 -0.2200
    1DPPC   C3A  967   1.919  24.698   4.149 -0.0297  0.0253 -0.1844
    1DPPC   C4A  968   2.360  24.679   4.160  0.0829 -0.0184  0.0343
    1DPPC   C1B  969   1.432  24.965   4.955 -0.0447  0.0858 -0.0224
    1DPPC   C2B  970   1.199  25.047   4.595  0.1193  0.2987 -0.1088
    1DPPC   C3B  971   0.795  25.219   4.350  0.2420 -0.1846 -0.2763
    1DPPC   C4B  972   0.563  25.355   3.989 -0.3522  0.2797 -0.0391
    1DPPC   NC3  973  14.632  11.217   7.529 -0.2537  0.1663 -0.0572
    1DPPC   PO4  974  14.689  10.768   7.419  0.0126  0.1968  0.3940
    1DPPC   GL1  975  14.751  10.737   6.948  0.4273  0.2467  0.2030
    1DPPC   GL2  976  14.641  10.440   6.819  0.0638 -0.0347 -0.1572
    1DPPC   C1A  977  15.052  10.885   6.672 -0.0640  0.1967  0.1788
    1DPPC   C2A  978  15.222  11.019   6.283  0.1113  0.1873  0.1347
    1DPPC   C3A  979  15.265  10.909   5.866  0.2149 -0.2144 -0.3096
    1DPPC   C4A  980  15.225  10.883   5.401 -0.2863  0.2251  0.2390
    1DPPC   C1B  981  14.502  10.259   6.422  0.1279  0.1073 -0.0771
    1DPPC   C2B  982  14.233  10.230   6.165  0.1340 -0.1719 -0.2613
    1DPPC   C3B  983  14.198  10.077   5.764  0.1320 -0.0304  0.0019
    1DPPC   C4B  984  14.310  10.171   5.439  0.2715 -0.0232 -0.1842
    1DPPC   NC3  985  20.352  18.304   6.268 -0.2632  0.0235 -0.0817
    1DPPC   PO4  986  20.741  18.333   6.109 -0.2573  0.2398  0.1434
    1DPPC   GL1  987  20.730  18.329   5.725 -0.3237  0.0809  0.1255
    1DPPC   GL2  988  20.500  18.313   5.535 -0.4510  0.2868  0.0856
    1DPPC   C1A  989  20.999  18.409   5.339 -0.0624 -0.0954  0.0100
    1DPPC   C2A  990  21.096  18.284   4.937 -0.1090 -0.0253  0.0798
    1DPPC   C3A  991  21.162  18.318   4.368  0.1098  0.1893  0.3338
    1DPPC   C4A  992  21.380  18.093   4.060  0.1009 -0.1547  0.0616
    1DPPC   C1B  993  20.578  18.273   5.142 -0.0609 -0.0910  0.2358
    1DPPC   C2B  994  20.709  18.114   4.635 -0.0758 -0.2045  0.0126
    1DPPC   C3B  995  20.693  18.016   4.299 -0.1058  0.1060 -0.0755
    1DPPC   C4B  996  20.694  17.743   3.995 -0.1676 -0.1307  0.0569
    1DPPC   NC3  997  10.564  26.311   6.190  0.0138 -0.0044 -0.2613
    1DPPC   PO4  998  10.424  26.648   6.378  0.1641  0.3173 -0.3679
    1DPPC   GL1  999  10.623  26.786   6.058  0.3825  0.1340 -0.2227
    1DPPC   GL2 1000  10.899  26.633   5.971  0.0581  0.0182 -0.1529
    1DPPC   C1A 1001  10.612  27.053   5.713 -0.1214 -0.0563 -0.1568
    1DPPC   C2A 1002  10.733  27.421   5.466 -0.0958 -0.0299  0.1843
    1DPPC   C3A 1003  10.417  27.397   5.095  0.2316  0.0566  0.1390
    1DPPC   C4A 1004  10.508  26.975   4.701  0.1356  0.1382  0.2192
    1DPPC   C1B 1005  11.003  26.777   5.509 -0.3878  0.0105 -0.1622
    1DPPC   C2B 1006  11.279  26.731   5.123  0.0098  0.1704 -0.1297
    1DPPC   C3B 1007  11.506  26.927   4.856  0.1062  0.2062 -0.5594
    1DPPC   C4B 1008  11.995  26.905   4.762  0.1339 -0.3307  0.0906
    1DPPC   NC3 1009  19.171  12.504   7.094 -0.0670  0.0420 -0.1620
    1DPPC   PO4 1010  19.105  12.168   7.409 -0.1530  0.0461 -0.1163
    1DPPC   GL1 1011  19.284  12.024   6.905  0.0211  0.0062 -0.1162
    1DPPC   GL2 1012  19.516  11.665   6.750 -0.0767 -0.1811  0.1698
    1DPPC   C1A 1013  19.073  12.060   6.441  0.2012  0.0164 -0.1132
    1DPPC   C2A 1014  19.012  12.009   6.034 -0.0585  0.0975  0.0068
    1DPPC   C3A 1015  18.928  11.967   5.614 -0.0498 -0.1098  0.2007
    1DPPC   C4A 1016  18.905  11.834   5.130 -0.0304  0.1760 -0.3185
    1DPPC   C1B 1017  19.410  11.607   6.297 -0.1260  0.1596 -0.1944
    1DPPC   C2B 1018  19.311  11.664   5.865 -0.4160  0.0490  0.3021
    1DPPC   C3B 1019  19.277  11.494   5.505 -0.0817  0.0814  0.1708
    1DPPC   C4B 1020  19.309  11.597   5.080  0.0884  0.1266  0.0463
    1DPPC   NC3 1021   2.028  29.402   6.163 -0.3426 -0.1461 -0.2507
    1DPPC   PO4 1022   1.900  28.862   6.196 -0.2513  0.1280 -0.0623
    1DPPC   GL1 1023   1.957  28.854   5.735  0.3733  0.0001  0.2721
    1DPPC   GL2 1024   1.693  28.833   5.538 -0.2383  0.0167 -0.0733
    1DPPC   C1A 1025   2.185  28.706   5.316 -0.1975 -0.1537  0.1903
    1DPPC   C2A 1026   2.140  28.675   4.884 -0.3188  0.1368  0.0531
    1DPPC   C3A 1027   1.832  28.447   4.505  0.1120  0.1728  0.2462
    1DPPC   C4A 1028   1.636  28.608   4.125 -0.1300  0.3742 -0.0010
    1DPPC   C1B 1029   1.744  28.857   5.087 -0.0412  0.1712 -0.0483
    1DPPC   C2B 1030   1.819  28.955   4.631  0.1094  0.0990 -0.1570
    1DPPC   C3B 1031   1.900  28.948   4.347  0.0997  0.3881 -0.0642
    1DPPC   C4B 1032   2.140  28.708   4.069  0.3103  0.1520  0.1304
    1DPPC   NC3 1033  20.496  11.303   7.112 -0.0245 -0.0493  0.0960
    1DPPC   PO4 1034  20.574  11.657   7.177  0.2182 -0.1223  0.2755
    1DPPC   GL1 1035  20.614  11.628   6.742  0.2800  0.1250  0.1257
    1DPPC   GL2 1036  20.770  11.325   6.687  0.2402 -0.0693  0.2424
    1DPPC   C1A 1037  20.800  11.801   6.408 -0.0609  0.3106 -0.2421
    1DPPC   C2A 1038  20.831  11.799   5.985 -0.2872  0.3576  0.2925
    1DPPC   C3A 1039  20.779  11.688   5.509  0.1127  0.0013 -0.1748
    1DPPC   C4A 1040  20.616  11.772   5.103 -0.1870 -0.1304  0.1480
    1DPPC   C1B 1041  20.852  11.315   6.336  0.0464  0.3877  0.1402
    1DPPC   C2B 1042  20.836  11.174   5.943 -0.0658 -0.2602 -0.0036
    1DPPC   C3B 1043  20.767  11.217   5.541  0.0985 -0.0838  0.0368
    1DPPC   C4B 1044  20.691  11.263   5.036 -0.0399 -0.1616 -0.1658
    1DPPC   NC3 1045  24.966  13.262   7.288  0.0240  0.1937 -0.3222
    1DPPC   PO4 1046  24.484  13.207   7.103 -0.0104  0.1731 -0.0684
    1DPPC   GL1 1047  24.388  13.037   6.671 -0.1006 -0.0402 -0.1142
    1DPPC   GL2 1048  24.050  12.977   6.664  0.0362  0.2207  0.1042
    1DPPC   C1A 1049  24.297  13.170   6.270  0.0567  0.3599  0.1598
    1DPPC   C2A 1050  24.346  13.134   5.796  0.0302  0.2514 -0.1240
    1DPPC   C3A 1051  24.386  13.098   5.379  0.3025  0.0390 -0.1991
    1DPPC   C4A 1052  24.612  13.378   4.985 -0.2414  0.2855 -0.0289
    1DPPC   C1B 1053  24.220  12.636   6.385 -0.0484  0.0016  0.1486
    1DPPC   C2B 1054  24.306  12.648   5.972  0.0394  0.2934 -0.1009
    1DPPC   C3B 1055  24.367  12.577   5.553 -0.0983 -0.0788  0.0701
    1DPPC   C4B 1056  24.214  12.602   5.209 -0.1386  0.0150 -0.0707
    1DPPC   NC3 1057   1.915   7.040   6.446 -0.1025 -0.1014  0.1779
    1DPPC   PO4 1058   2.230   7.474   6.395 -0.2910 -0.3120 -0.1224
    1DPPC   GL1 1059   2.317   7.372   5.987 -0.0264 -0.0688 -0.0592
    1DPPC   GL2 1060   2.396   7.790   5.987 -0.1446 -0.0160  0.3861
    1DPPC   C1A 1061   2.153   6.932   5.776  0.0946  0.1772 -0.4362
    1DPPC   C2A 1062   2.143   6.927   5.327 -0.1304  0.1986  0.3491
    1DPPC   C3A 1063   2.355   6.970   4.947 -0.2021  0.2045  0.0649
    1DPPC   C4A 1064   2.424   6.977   4.545  0.0841  0.2372 -0.0258
    1DPPC   C1B 1065   2.462   7.853   5.586 -0.2008 -0.0096 -0.0945
    1DPPC   C2B 1066   2.807   7.664   5.251  0.0833 -0.2110  0.0873
    1DPPC   C3B 1067   2.972   7.601   4.841 -0.0553 -0.3667  0.1349
    1DPPC   C4B 1068   3.131   7.136   4.643 -0.0169  0.1471  0.1259
    1DPPC   NC3 1069  14.643  21.377   5.393  0.2015 -0.2735 -0.0178
    1DPPC   PO4 1070  15.006  21.060   5.230 -0.1892  0.4297 -0.2999
    1DPPC   GL1 1071  14.946  20.853   4.865  0.1549 -0.2965  0.0253
    1DPPC   GL2 1072  14.990  20.529   4.824 -0.2326  0.3109  0.0958
    1DPPC   C1A 1073  15.273  20.784   4.466  0.0298 -0.0282  0.1833
    1DPPC   C2A 1074  15.452  21.006   4.214 -0.0617  0.2070  0.2075
    1DPPC   C3A 1075  15.764  21.049   3.846  0.1762  0.2665  0.1726
    1DPPC   C4A 1076  15.954  21.025   3.440  0.0176 -0.0818 -0.4632
    1DPPC   C1B 1077  15.274  20.305   4.802 -0.0773 -0.1072 -0.2289
    1DPPC   C2B 1078  15.265  20.058   4.505 -0.0358  0.2157 -0.0680
    1DPPC   C3B 1079  15.116  19.936   4.084  0.0600  0.2310  0.2644
    1DPPC   C4B 1080  15.068  19.503   3.878 -0.0308 -0.2850  0.0556
    1DPPC   NC3 1081  22.334  18.480   6.096 -0.2722 -0.0441 -0.0186
    1DPPC   PO4 1082  22.564  18.909   6.098  0.1898 -0.1981  0.1535
    1DPPC   GL1 1083  22.246  18.959   5.792 -0.0184 -0.1032 -0.1126
    1DPPC   GL2 1084  22.475  19.217   5.731 -0.0928  0.3023  0.2163
    1DPPC   C1A 1085  21.875  18.905   5.615  0.1773  0.1151  0.0515
    1DPPC   C2A 1086  21.618  19.042   5.298  0.0872 -0.0258  0.2826
    1DPPC   C3A 1087  21.682  18.953   4.960 -0.0260  0.1324  0.0406
    1DPPC   C4A 1088  21.770  18.909   4.451 -0.0600  0.0351 -0.1132
    1DPPC   C1B 1089  22.297  19.210   5.327  0.1923 -0.1726 -0.2382
    1DPPC   C2B 1090  22.330  19.380   4.970  0.1306 -0.1603 -0.0145
    1DPPC   C3B 1091  22.524  19.622   4.947  0.0984 -0.2349  0.1311
    1DPPC   C4B 1092  22.581  20.058   5.131  0.0846 -0.2824 -0.0132
    1DPPC   NC3 1093  18.992  10.492   7.453  0.0927 -0.2244 -0.0294
    1DPPC   PO4 1094  18.528  10.554   7.382 -0.0865 -0.0363 -0.3026
    1DPPC   GL1 1095  18.745  10.528   6.973 -0.1356  0.3441  0.0010
    1DPPC   GL2 1096  18.945  10.786   6.856  0.0828 -0.2534  0.0339
    1DPPC   C1A 1097  18.663  10.451   6.493  0.1594 -0.0904 -0.0090
    1DPPC   C2A 1098  18.769  10.297   6.192 -0.2942  0.1670  0.3631
    1DPPC   C3A 1099  18.630  10.083   5.824  0.3370 -0.2915  0.1418
    1DPPC   C4A 1100  18.271  10.290   5.569 -0.0905  0.2065 -0.0148
    1DPPC   C1B 1101  19.097  10.657   6.481  0.1335 -0.2556 -0.1189
    1DPPC   C2B 1102  19.177  10.529   6.050  0.0157 -0.0980 -0.0707
    1DPPC   C3B 1103  18.990  10.467   5.750 -0.0923 -0.0965  0.1571
    1DPPC   C4B 1104  19.130  10.331   5.383  0.1143 -0.1346 -0.0780
    1DPPC   NC3 1105  19.029  11.670   7.306  0.2462  0.1635  0.0257
    1DPPC   PO4 1106  18.993  11.235   7.198 -0.1018  0.0230 -0.4053
    1DPPC   GL1 1107  19.101  11.375   6.820  0.0850  0.1664  0.1016
    1DPPC   GL2 1108  18.986  11.597   6.806  0.0140  0.0566 -0.2076
    1DPPC   C1A 1109  19.196  11.161   6.451 -0.2721 -0.2061  0.2001
    1DPPC   C2A 1110  19.347  11.015   6.080  0.1485 -0.3483 -0.1157
    1DPPC   C3A 1111  19.481  10.728   5.711 -0.4273  0.2422 -0.0922
    1DPPC   C4A 1112  19.577  10.667   5.268 -0.1103  0.0306 -0.0511
    1DPPC   C1B 1113  18.955  11.558   6.390 -0.1480  0.0223 -0.0299
    1DPPC   C2B 1114  18.809  11.526   6.003  0.0189 -0.0425 -0.0577
    1DPPC   C3B 1115  18.690  11.527   5.604  0.2113  0.1628 -0.4664
    1DPPC   C4B 1116  18.473  11.576   5.273  0.3872  0.0167  0.0681
    1DPPC   NC3 1117  25.987   5.035   7.076  0.1813 -0.2874  0.1430
    1DPPC   PO4 1118  25.599   5.125   7.033  0.2042  0.2282 -0.0806
    1DPPC   GL1 1119  25.729   5.350   6.686 -0.3339 -0.1550 -0.0497
    1DPPC   GL2 1120  26.128   5.337   6.712 -0.0230 -0.2884 -0.3324
    1DPPC   C1A 1121  25.638   5.536   6.287  0.0790  0.0516  0.0849
    1DPPC   C2A 1122  25.454   5.559   5.964 -0.1589 -0.3027 -0.1079
    1DPPC   C3A 1123  25.140   5.825   5.702 -0.1400 -0.1238 -0.2250
    1DPPC   C4A 1124  24.925   5.844   5.299  0.1914  0.2462 -0.1169
    1DPPC   C1B 1125  25.948   5.193   6.236 -0.2385 -0.0203  0.1093
    1DPPC   C2B 1126  25.718   5.224   5.820  0.0272 -0.1510 -0.0903
    1DPPC   C3B 1127  25.465   5.200   5.552 -0.3633  0.0460  0.0705
    1DPPC   C4B 1128  25.342   5.098   5.125 -0.0334 -0.3572 -0.2760
    1DPPC   NC3 1129   4.078  12.711   6.124 -0.0048  0.0023 -0.0316
    1DPPC   PO4 1130   3.533  12.669   6.118  0.3167 -0.0359  0.1914
    1DPPC   GL1 1131   3.539  12.984   5.717  0.1360 -0.1927  0.2009
    1DPPC   GL2 1132   3.949  13.227   5.605  0.0392  0.1377  0.2537
    1DPPC   C1A 1133   3.309  13.227   5.368 -0.2665 -0.0916  0.1821
    1DPPC   C2A 1134   3.134  13.100   5.038 -0.0702  0.0113  0.0902
    1DPPC   C3A 1135   2.993  13.176   4.658  0.1102  0.0270  0.0277
    1DPPC   C4A 1136   3.089  13.362   4.227  0.0993 -0.2253 -0.0873
    1DPPC   C1B 1137   3.829  13.327   5.290  0.1746  0.2424  0.0877
    1DPPC   C2B 1138   3.615  13.136   4.907  0.4018 -0.1945  0.0078
    1DPPC   C3B 1139   3.330  12.858   4.637 -0.1002  0.0736 -0.1421
    1DPPC   C4B 1140   3.390  12.471   4.435  0.1411  0.0074 -0.1989
    1DPPC   NC3 1141   4.595  12.878   6.049  0.0491  0.1444  0.3013
    1DPPC   PO4 1142   4.310  13.159   6.053 -0.0223  0.3030 -0.0711
    1DPPC   GL1 1143   4.434  13.369   5.673 -0.0829 -0.0175  0.1632
    1DPPC   GL2 1144   4.621  13.210   5.654  0.0082 -0.0135 -0.0832
    1DPPC   C1A 1145   4.319  13.391   5.270  0.3178 -0.0064  0.1153
    1DPPC   C2A 1146   4.093  13.399   4.858  0.0292  0.2008 -0.3883
    1DPPC   C3A 1147   3.922  13.177   4.476 -0.0663 -0.0490  0.0488
    1DPPC   C4A 1148   3.758  13.087   4.043  0.2514  0.2297 -0.2170
    1DPPC   C1B 1149   4.724  13.093   5.261 -0.0538 -0.3358 -0.2279
    1DPPC   C2B 1150   4.456  13.036   4.939 -0.2039 -0.0877  0.1526
    1DPPC   C3B 1151   4.536  13.042   4.597 -0.2148 -0.2586  0.0973
    1DPPC   C4B 1152   4.731  13.131   4.192 -0.1435 -0.3030 -0.0363
    1DPPC   NC3 1153  21.204  29.193   7.719  0.3438 -0.1186  0.4083
    1DPPC   PO4 1154  21.308  29.253   7.262 -0.2089 -0.0028 -0.0151
    1DPPC   GL1 1155  21.311  29.460   6.920 -0.0342  0.2093  0.1921
    1DPPC   GL2 1156  21.103  29.448   6.686 -0.2767  0.4160  0.1634
    1DPPC   C1A 1157  21.603  29.710   6.618  0.0008 -0.0442  0.0393
    1DPPC   C2A 1158  21.758   0.060   6.281 -0.2905 -0.0451 -0.2217
    1DPPC   C3A 1159  21.814   0.178   5.845  0.0933  0.0495 -0.2318
    1DPPC   C4A 1160  21.569   0.132   5.493 -0.0392 -0.1501  0.2702
    1DPPC   C1B 1161  21.252  29.593   6.254 -0.1652 -0.1660  0.2964
    1DPPC   C2B 1162  21.356   0.095   5.975  0.3618  0.1741 -0.4240
    1DPPC   C3B 1163  21.043   0.308   5.568  0.0277  0.1282  0.3307
    1DPPC   C4B 1164  20.908   0.471   5.202 -0.4548  0.2097 -0.0903
    1DPPC   NC3 1165  20.083  11.597   7.105 -0.1597  0.0286  0.0419
    1DPPC   PO4 1166  19.965  11.961   7.378  0.3491 -0.1223 -0.0470
    1DPPC   GL1 1167  20.115  12.139   6.971  0.4556  0.0879  0.1069
    1DPPC   GL2 1168  20.163  11.941   6.725 -0.0038  0.0837 -0.2422
    1DPPC   C1A 1169  20.170  12.400   6.632  0.1376 -0.0105  0.1233
    1DPPC   C2A 1170  19.995  12.373   6.219 -0.0121  0.1176 -0.1140
    1DPPC   C3A 1171  19.989  12.322   5.792 -0.0825  0.3163  0.0966
    1DPPC   C4A 1172  20.090  12.479   5.397  0.1107 -0.1399 -0.0001
    1DPPC   C1B 1173  20.363  11.978   6.365 -0.1814  0.2842 -0.4098
    1DPPC   C2B 1174  20.311  11.911   5.940 -0.1432  0.1574  0.1775
    1DPPC   C3B 1175  20.225  11.844   5.567  0.1022 -0.0116 -0.0231
    1DPPC   C4B 1176  20.140  11.964   5.167  0.0325 -0.2379  0.2760
    1DPPC   NC3 1177  23.117  17.229   6.274  0.2307  0.0172  0.2670
    1DPPC   PO4 1178  23.255  17.584   6.375  0.0520  0.1771 -0.3776
    1DPPC   GL1 1179  23.210  17.592   5.932 -0.0465 -0.1754 -0.2152
    1DPPC   GL2 1180  23.157  17.307   5.624  0.3977 -0.0705  0.0696
    1DPPC   C1A 1181  23.285  17.835   5.492 -0.1169 -0.0276 -0.3982
    1DPPC   C2A 1182  23.262  17.855   4.984 -0.1126  0.0376 -0.0924
    1DPPC   C3A 1183  23.206  18.102   4.639  0.0486 -0.2734  0.2166
    1DPPC   C4A 1184  23.214  18.483   4.386 -0.0080 -0.0948 -0.1117
    1DPPC   C1B 1185  23.097  17.419   5.176 -0.0969  0.0050 -0.2866
    1DPPC   C2B 1186  23.005  17.404   4.783 -0.4207 -0.0551 -0.0826
    1DPPC   C3B 1187  23.072  17.655   4.523 -0.0700 -0.0873 -0.1059
    1DPPC   C4B 1188  23.187  17.864   4.224  0.2717  0.0954  0.0767
    1DPPC   NC3 1189  14.994  14.265   6.945 -0.1824  0.1417 -0.1736
    1DPPC   PO4 1190  15.384  14.107   6.823 -0.0388  0.4592 -0.0677
    1DPPC   GL1 1191  15.463  14.051   6.382 -0.1915 -0.3208  0.0416
    1DPPC   GL2 1192  15.219  13.946   6.266 -0.1903 -0.2517 -0.0168
    1DPPC   C1A 1193  15.553  14.054   5.888 -0.1075  0.0278 -0.0871
    1DPPC   C2A 1194  15.897  13.949   5.627  0.1020  0.0733 -0.2678
    1DPPC   C3A 1195  16.120  13.865   5.231 -0.2557  0.0491  0.0502
    1DPPC   C4A 1196  16.103  13.652   4.860  0.0314  0.0297  0.1902
    1DPPC   C1B 1197  15.168  13.623   5.990 -0.0367 -0.0590 -0.0309
    1DPPC   C2B 1198  15.315  13.623   5.681 -0.0821 -0.1748 -0.0441
    1DPPC   C3B 1199  15.646  13.665   5.307 -0.3314  0.1191  0.0502
    1DPPC   C4B 1200  15.636  13.780   5.014 -0.4082 -0.0893  0.0760
    1DPPC   NC3 1201  19.518  11.257   7.213  0.0535  0.1687 -0.0072
    1DPPC   PO4 1202  19.314  10.850   7.134 -0.2380 -0.0358 -0.2560
    1DPPC   GL1 1203  19.515  10.847   6.750  0.0684  0.2777  0.2221
    1DPPC   GL2 1204  19.757  11.005   6.798 -0.0815 -0.0401 -0.0902
    1DPPC   C1A 1205  19.561  10.601   6.437 -0.1814  0.1282 -0.1120
    1DPPC   C2A 1206  19.670  10.417   6.021 -0.0744 -0.1983  0.3096
    1DPPC   C3A 1207  19.493  10.124   5.633 -0.4635  0.0890  0.0349
    1DPPC   C4A 1208  19.336   9.866   5.304 -0.0446 -0.0613  0.4202
    1DPPC   C1B 1209  19.754  11.235   6.392  0.1777  0.0660  0.1702
    1DPPC   C2B 1210  19.744  11.300   6.064  0.0660  0.1766 -0.2046
    1DPPC   C3B 1211  19.687  11.240   5.624  0.2647  0.0105 -0.0241
    1DPPC   C4B 1212  19.530  11.179   5.206 -0.1316  0.1296  0.1480
    1DPPC   NC3 1213   2.238  24.249   5.489 -0.2333  0.3349 -0.1562
    1DPPC   PO4 1214   2.316  23.898   5.823  0.1163  0.0911 -0.0406
    1DPPC   GL1 1215   2.296  23.745   5.345 -0.0630  0.1445  0.3195
    1DPPC   GL2 1216   1.978  23.862   5.226 -0.0310 -0.3690 -0.1853
    1DPPC   C1A 1217   2.255  23.547   4.914 -0.2388 -0.1277 -0.1099
    1DPPC   C2A 1218   2.204  23.248   4.579 -0.0782 -0.3084 -0.1147
    1DPPC   C3A 1219   2.255  23.082   4.192 -0.5267  0.1877  0.0647
    1DPPC   C4A 1220   1.963  22.918   3.987  0.0417  0.2342 -0.3214
    1DPPC   C1B 1221   1.594  24.250   5.262  0.0716  0.0228 -0.1003
    1DPPC   C2B 1222   1.293  24.480   4.981  0.3155  0.0500 -0.0097
    1DPPC   C3B 1223   1.006  24.545   4.633  0.0202 -0.1323  0.2251
    1DPPC   C4B 1224   0.727  24.467   4.318  0.1701  0.0936  0.3028
    1DPPC   NC3 1225  24.307  15.020   7.514  0.2887  0.1255 -0.2965
    1DPPC   PO4 1226  24.320  15.080   7.129  0.0206 -0.2359  0.2262
    1DPPC   GL1 1227  24.521  14.905   6.749  0.1196  0.1103 -0.0032
    1DPPC   GL2 1228  24.846  14.904   6.634  0.1978 -0.3999  0.1307
    1DPPC   C1A 1229  24.488  14.518   6.463 -0.0409 -0.1275  0.2235
    1DPPC   C2A 1230  24.547  14.425   6.060  0.0057  0.0182  0.0589
    1DPPC   C3A 1231  24.807  14.290   5.745 -0.1398  0.1350  0.2405
    1DPPC   C4A 1232  25.295  14.338   5.611 -0.0513 -0.2067 -0.0240
    1DPPC   C1B 1233  24.851  14.842   6.256  0.1595  0.1341  0.0720
    1DPPC   C2B 1234  24.890  14.740   5.862  0.0480  0.0845  0.0289
    1DPPC   C3B 1235  24.909  14.691   5.415 -0.1645  0.2178  0.3203
    1DPPC   C4B 1236  24.988  14.883   5.004  0.0675 -0.2604 -0.2506
    1DPPC   NC3 1237  17.808   7.427   8.217  0.2195  0.1603 -0.3707
    1DPPC   PO4 1238  18.154   7.586   8.038 -0.3077  0.1296 -0.0303
    1DPPC   GL1 1239  18.201   7.535   7.658 -0.0814 -0.2843 -0.0589
    1DPPC   GL2 1240  18.585   7.358   7.583  0.0142  0.0302 -0.1572
    1DPPC   C1A 1241  18.256   7.554   7.231  0.1394  0.3858 -0.1808
    1DPPC   C2A 1242  18.441   7.371   6.798  0.3354  0.1905  0.1200
    1DPPC   C3A 1243  18.504   7.183   6.328  0.1179 -0.1788 -0.0097
    1DPPC   C4A 1244  18.299   6.977   5.926  0.2875  0.1210 -0.0920
    1DPPC   C1B 1245  18.779   7.321   7.179  0.2947  0.1106 -0.0155
    1DPPC   C2B 1246  19.023   7.392   6.829  0.0720  0.4934  0.0456
    1DPPC   C3B 1247  18.954   7.308   6.499 -0.3397 -0.1141  0.2116
    1DPPC   C4B 1248  19.066   7.193   6.171  0.0670  0.1146  0.0058
    1DPPC   NC3 1249  21.176   7.779   8.084  0.1015 -0.1279  0.1714
    1DPPC   PO4 1250  21.010   7.355   8.152 -0.1250 -0.0727 -0.0113
    1DPPC   GL1 1251  21.160   7.363   7.790 -0.0634  0.2523  0.0105
    1DPPC   GL2 1252  20.862   7.306   7.687 -0.0087 -0.2584  0.1382
    1DPPC   C1A 1253  21.145   7.544   7.372 -0.1569 -0.1043  0.0469
    1DPPC   C2A 1254  21.075   7.626   6.942 -0.1895 -0.1350 -0.0644
    1DPPC   C3A 1255  21.204   7.454   6.513 -0.0536 -0.0437 -0.1190
    1DPPC   C4A 1256  21.049   7.420   6.054 -0.1803 -0.2054 -0.0863
    1DPPC   C1B 1257  20.626   7.502   7.346 -0.1768 -0.0123 -0.1740
    1DPPC   C2B 1258  20.304   7.556   6.888  0.1755 -0.1319 -0.0602
    1DPPC   C3B 1259  20.181   7.416   6.473  0.1884 -0.0099  0.1675
    1DPPC   C4B 1260  20.140   7.343   6.038  0.6349 -0.0147 -0.1068
    1DPPC   NC3 1261  26.768   8.314   6.862 -0.0860 -0.0731 -0.0422
    1DPPC   PO4 1262  26.575   7.945   6.934 -0.0418 -0.3060  0.1286
    1DPPC   GL1 1263  26.642   8.025   6.459  0.6443 -0.0294  0.1044
    1DPPC   GL2 1264  26.779   7.924   6.152 -0.1939  0.1927 -0.2905
    1DPPC   C1A 1265  26.291   7.885   6.140 -0.3695  0.1843  0.0730
    1DPPC   C2A 1266  25.960   7.788   5.896 -0.3200 -0.3071 -0.1322
    1DPPC   C3A 1267  25.725   7.642   5.605  0.1342  0.1077 -0.1099
    1DPPC   C4A 1268  25.385   7.459   5.328  0.0549 -0.0489 -0.2137
    1DPPC   C1B 1269  26.810   7.830   5.699  0.0758  0.1943 -0.0397
    1DPPC   C2B 1270  26.698   7.581   5.284 -0.0348  0.0843  0.1466
    1DPPC   C3B 1271  26.876   7.485   4.938 -0.2129 -0.0131  0.1250
    1DPPC   C4B 1272  27.220   7.341   4.672 -0.0456 -0.0940 -0.0798
    1DPPC   NC3 1273  25.723  13.009   6.934  0.1195 -0.2083 -0.0976
    1DPPC   PO4 1274  25.346  13.269   6.786  0.0993  0.1632 -0.0195
    1DPPC   GL1 1275  25.172  13.236   6.456  0.1721 -0.1991 -0.2710
    1DPPC   GL2 1276  24.939  13.276   6.427 -0.0096 -0.0105 -0.0833
    1DPPC   C1A 1277  25.345  13.269   6.058  0.1379 -0.1207 -0.2047
    1DPPC   C2A 1278  25.370  13.341   5.612 -0.0554  0.4582 -0.2718
    1DPPC   C3A 1279  25.418  13.617   5.338 -0.2373 -0.0934 -0.0254
    1DPPC   C4A 1280  25.603  13.746   5.047  0.0514  0.0244  0.3694
    1DPPC   C1B 1281  24.733  13.351   6.068 -0.1213 -0.0189 -0.1492
    1DPPC   C2B 1282  24.829  13.331   5.719 -0.2585  0.3024  0.0764
    1DPPC   C3B 1283  24.954  13.392   5.340 -0.0379 -0.0615 -0.0664
    1DPPC   C4B 1284  25.095  13.651   4.979  0.0952 -0.2034 -0.0532
    1DPPC   NC3 1285  19.486  13.384   6.874  0.3453 -0.0803  0.3349
    1DPPC   PO4 1286  19.361  13.810   6.675 -0.0178 -0.0153 -0.0060
    1DPPC   GL1 1287  19.146  13.621   6.450  0.1172  0.1976 -0.0319
    1DPPC   GL2 1288  19.308  13.281   6.421 -0.2625 -0.2004  0.0328
    1DPPC   C1A 1289  18.876  13.676   6.127  0.0505 -0.1556 -0.3346
    1DPPC   C2A 1290  18.711  13.645   5.739 -0.1521 -0.0411 -0.0824
    1DPPC   C3A 1291  18.368  13.451   5.363 -0.0661  0.2481  0.1668
    1DPPC   C4A 1292  18.275  13.230   4.985 -0.2060 -0.0189  0.0637
    1DPPC   C1B 1293  19.270  13.038   6.178  0.1325 -0.0411  0.1052
    1DPPC   C2B 1294  19.256  12.854   5.844  0.0696  0.0565  0.0731
    1DPPC   C3B 1295  19.213  12.989   5.458  0.3727  0.1137  0.0862
    1DPPC   C4B 1296  19.368  12.986   4.990 -0.0367 -0.2421  0.1153
    1DPPC   NC3 1297  18.676  19.278   5.549 -0.2262 -0.1292  0.2445
    1DPPC   PO4 1298  18.962  19.156   5.852 -0.0956 -0.2198  0.1397
    1DPPC   GL1 1299  19.188  19.385   5.503 -0.0981 -0.0550  0.1537
    1DPPC   GL2 1300  19.013  19.521   5.219  0.1978  0.0031  0.0550
    1DPPC   C1A 1301  19.479  19.212   5.176 -0.3738 -0.3628 -0.2984
    1DPPC   C2A 1302  19.633  19.160   4.803 -0.0209 -0.0117 -0.0882
    1DPPC   C3A 1303  19.544  19.094   4.457  0.1784  0.0450  0.0944
    1DPPC   C4A 1304  19.235  18.977   4.040 -0.0900 -0.1939 -0.0822
    1DPPC   C1B 1305  19.103  19.297   4.845  0.1281 -0.1817  0.0249
    1DPPC   C2B 1306  19.065  19.342   4.423 -0.0471  0.1305 -0.1506
    1DPPC   C3B 1307  18.807  19.287   4.088 -0.0173 -0.0709  0.0975
    1DPPC   C4B 1308  18.847  19.109   3.672  0.0081 -0.2317 -0.3481
    1DPPC   NC3 1309  22.122   0.351   7.247  0.4176  0.2473 -0.1918
    1DPPC   PO4 1310  22.126   0.716   7.386 -0.2456  0.0738 -0.0045
    1DPPC   GL1 1311  21.953   0.787   6.968  0.1842 -0.0338  0.0152
    1DPPC   GL2 1312  21.683   1.037   6.936  0.0097  0.0613 -0.0984
    1DPPC   C1A 1313  22.060   0.971   6.541 -0.0645  0.3480 -0.0579
    1DPPC   C2A 1314  21.888   1.148   6.152  0.4046  0.0945  0.2737
    1DPPC   C3A 1315  22.041   1.319   5.760 -0.3580 -0.1111 -0.2159
    1DPPC   C4A 1316  22.315   1.471   5.528 -0.3283 -0.1952  0.0419
    1DPPC   C1B 1317  21.518   0.959   6.521  0.0695  0.0943 -0.4147
    1DPPC   C2B 1318  21.164   1.139   6.277  0.0227  0.2394 -0.0584
    1DPPC   C3B 1319  21.275   1.089   5.800 -0.1344  0.0663 -0.1158
    1DPPC   C4B 1320  21.632   1.098   5.550  0.0916  0.2406 -0.1512
    1DPPC   NC3 1321  23.102  29.040   7.049  0.1407  0.0157  0.2824
    1DPPC   PO4 1322  23.081  29.433   6.859 -0.4019 -0.1993 -0.2335
    1DPPC   GL1 1323  22.729  29.433   6.543  0.0755  0.1972  0.0435
    1DPPC   GL2 1324  22.396  29.199   6.459  0.0682  0.0618  0.0313
    1DPPC   C1A 1325  22.681  29.821   6.313  0.1453 -0.1696 -0.2145
    1DPPC   C2A 1326  22.637   0.208   5.882 -0.0854  0.4001 -0.3053
    1DPPC   C3A 1327  22.597   0.603   5.815 -0.2614  0.2918  0.2549
    1DPPC   C4A 1328  23.053   0.763   5.790 -0.0557 -0.3216  0.0125
    1DPPC   C1B 1329  22.526  29.365   6.062 -0.1081  0.0917 -0.0711
    1DPPC   C2B 1330  22.652  29.541   5.819  0.0872 -0.1440 -0.2283
    1DPPC   C3B 1331  22.725  29.736   5.485  0.4155  0.1102  0.0509
    1DPPC   C4B 1332  22.936  29.725   5.146  0.1476 -0.0564  0.0427
    1DPPC   NC3 1333  28.762  13.822   7.153  0.0898  0.1819 -0.0144
    1DPPC   PO4 1334  28.846  13.668   6.711  0.0939  0.2673 -0.2715
    1DPPC   GL1 1335  28.988  13.531   6.313 -0.1846 -0.0159  0.0086
    1DPPC   GL2 1336  29.250  13.637   6.064 -0.1962  0.0827  0.1744
    1DPPC   C1A 1337  28.934  13.325   5.876 -0.0867 -0.2812 -0.2414
    1DPPC   C2A 1338  29.007  13.407   5.473  0.3059 -0.0488  0.1408
    1DPPC   C3A 1339  29.078  13.599   5.156  0.4032  0.2619 -0.0393
    1DPPC   C4A 1340  28.982  13.733   4.763 -0.0801 -0.0874 -0.3569
    1DPPC   C1B 1341  29.037  13.813   5.723 -0.1139  0.1909 -0.2045
    1DPPC   C2B 1342  28.831  13.935   5.364  0.0551  0.2459  0.1259
    1DPPC   C3B 1343  28.614  13.979   4.940  0.0320  0.0428 -0.3524
    1DPPC   C4B 1344  28.388  14.106   4.674 -0.3592 -0.0423 -0.0244
    1DPPC   NC3 1345  22.195   2.075   7.626 -0.2438  0.0650 -0.1471
    1DPPC   PO4 1346  22.628   2.019   7.396 -0.5115 -0.4058 -0.1099
    1DPPC   GL1 1347  22.504   2.199   7.027 -0.1472 -0.3477  0.2567
    1DPPC   GL2 1348  22.253   2.243   7.069 -0.1015 -0.0297 -0.1768
    1DPPC   C1A 1349  22.508   2.443   6.713 -0.2593 -0.2398 -0.1684
    1DPPC   C2A 1350  22.753   2.483   6.410  0.0264  0.3587  0.1398
    1DPPC   C3A 1351  22.933   2.455   5.987  0.0516  0.1339  0.0735
    1DPPC   C4A 1352  22.842   2.737   5.512  0.2682  0.1843  0.3882
    1DPPC   C1B 1353  22.030   2.351   6.814 -0.1916 -0.2963  0.2237
    1DPPC   C2B 1354  21.821   2.373   6.431 -0.0639 -0.2372  0.2000
    1DPPC   C3B 1355  21.574   2.528   6.165  0.2067  0.0125  0.0703
    1DPPC   C4B 1356  21.246   2.652   5.906 -0.1312 -0.2773 -0.0199
    1DPPC   NC3 1357   4.782   3.183   6.741  0.0796  0.2785  0.4050
    1DPPC   PO4 1358   5.004   3.550   6.743 -0.1898  0.1771  0.0821
    1DPPC   GL1 1359   4.990   3.605   6.305 -0.0802  0.4109  0.4023
    1DPPC   GL2 1360   5.046   3.883   6.176  0.0311  0.1331 -0.2321
    1DPPC   C1A 1361   5.238   3.469   5.886 -0.3292 -0.0026 -0.2586
    1DPPC   C2A 1362   5.371   3.479   5.505 -0.0674 -0.1240  0.2060
    1DPPC   C3A 1363   5.379   3.226   5.082  0.1951  0.3057  0.5516
    1DPPC   C4A 1364   5.250   2.927   4.735  0.4627 -0.0088  0.0462
    1DPPC   C1B 1365   5.337   3.959   5.759  0.0010 -0.2052 -0.1048
    1DPPC   C2B 1366   5.592   3.986   5.311  0.0279 -0.0458  0.0389
    1DPPC   C3B 1367   5.656   4.170   4.922 -0.0606  0.0962 -0.1519
    1DPPC   C4B 1368   5.503   4.157   4.523 -0.2284  0.1362 -0.0431
    1DPPC   NC3 1369  24.352  14.151   7.057  0.0267 -0.0255 -0.1801
    1DPPC   PO4 1370  24.015  14.297   7.300 -0.3320  0.1281  0.2587
    1DPPC   GL1 1371  23.693  14.340   6.885 -0.1827  0.0636 -0.1926
    1DPPC   GL2 1372  23.318  14.363   6.713 -0.2227  0.0205  0.0335
    1DPPC   C1A 1373  23.672  14.124   6.507  0.0150  0.0486  0.1153
    1DPPC   C2A 1374  23.617  13.991   6.093  0.1247 -0.0353 -0.1187
    1DPPC   C3A 1375  23.624  14.074   5.669  0.4488 -0.0287 -0.1769
    1DPPC   C4A 1376  23.761  13.846   5.335  0.1057  0.2276 -0.4750
    1DPPC   C1B 1377  23.337  14.523   6.286  0.0437  0.0559  0.1082
    1DPPC   C2B 1378  23.196  14.525   5.883  0.1185  0.2914 -0.0344
    1DPPC   C3B 1379  23.216  14.387   5.537 -0.0341  0.0571 -0.0819
    1DPPC   C4B 1380  23.208  14.234   5.087  0.3628  0.1625  0.1343
    1DPPC   NC3 1381  13.923  17.846   6.060 -0.0641  0.0840 -0.2030
    1DPPC   PO4 1382  13.392  17.851   6.039  0.0792  0.4010 -0.2492
    1DPPC   GL1 1383  13.645  17.779   5.657  0.0512  0.1447 -0.1088
    1DPPC   GL2 1384  13.875  17.911   5.531 -0.3541 -0.0638  0.0952
    1DPPC   C1A 1385  13.710  17.520   5.325 -0.0774  0.2924  0.0526
    1DPPC   C2A 1386  13.713  17.523   4.882  0.0790  0.0250 -0.1027
    1DPPC   C3A 1387  13.817  17.245   4.603  0.3307  0.2397 -0.0204
    1DPPC   C4A 1388  13.782  17.020   4.277 -0.0051 -0.0690 -0.0980
    1DPPC   C1B 1389  13.906  18.002   5.105  0.0636 -0.2754  0.2254
    1DPPC   C2B 1390  13.649  18.055   4.771  0.1523 -0.1262  0.0431
    1DPPC   C3B 1391  13.499  17.736   4.431  0.2457 -0.0763 -0.2146
    1DPPC   C4B 1392  13.535  17.430   4.075  0.1072 -0.2057  0.5083
    1DPPC   NC3 1393  21.452  16.500   6.431 -0.0391 -0.0209  0.2849
    1DPPC   PO4 1394  21.219  16.275   6.167 -0.2877  0.1292  0.3163
    1DPPC   GL1 1395  21.203  15.885   5.913  0.1047 -0.2504 -0.0811
    1DPPC   GL2 1396  21.444  15.731   5.862 -0.0595  0.2029 -0.1220
    1DPPC   C1A 1397  21.182  15.815   5.446  0.0538  0.1666 -0.1017
    1DPPC   C2A 1398  21.172  15.769   5.022 -0.1811  0.0227  0.3132
    1DPPC   C3A 1399  20.804  15.538   4.908 -0.3178  0.0803  0.0170
    1DPPC   C4A 1400  20.516  15.185   4.694 -0.2030  0.0839  0.0272
    1DPPC   C1B 1401  21.596  16.014   5.609  0.0261 -0.0943  0.0627
    1DPPC   C2B 1402  21.721  16.044   5.171 -0.2007 -0.1952  0.0138
    1DPPC   C3B 1403  21.687  15.957   4.709 -0.1997 -0.0297  0.0851
    1DPPC   C4B 1404  21.854  15.830   4.356 -0.2460 -0.1715  0.0775
    1DPPC   NC3 1405  15.737   6.772   8.031 -0.3201  0.1357  0.3413
    1DPPC   PO4 1406  15.566   7.194   7.984 -0.1814  0.0866  0.1808
    1DPPC   GL1 1407  15.579   7.023   7.620  0.2501  0.2913 -0.0224
    1DPPC   GL2 1408  15.804   6.749   7.514  0.0743  0.1206 -0.0055
    1DPPC   C1A 1409  15.369   7.010   7.227 -0.0655 -0.1576 -0.0576
    1DPPC   C2A 1410  15.397   7.037   6.799 -0.0368  0.2356  0.2631
    1DPPC   C3A 1411  15.314   6.812   6.380  0.0023 -0.2900  0.2358
    1DPPC   C4A 1412  14.946   6.851   6.098  0.0540  0.2630 -0.3732
    1DPPC   C1B 1413  15.678   6.553   7.215  0.1071  0.3059  0.0996
    1DPPC   C2B 1414  15.607   6.497   6.858 -0.2214 -0.0240  0.1326
    1DPPC   C3B 1415  15.439   6.234   6.455  0.0474  0.1180 -0.1777
    1DPPC   C4B 1416  15.728   6.095   6.129  0.0251  0.2498  0.2089
    1DPPC   NC3 1417  20.772   1.306   7.658 -0.1060 -0.0218  0.1270
    1DPPC   PO4 1418  20.918   1.767   7.606 -0.1962  0.2665 -0.1273
    1DPPC   GL1 1419  21.031   1.472   7.239  0.0871  0.2793  0.0254
    1DPPC   GL2 1420  21.311   1.265   7.166  0.0803 -0.0388 -0.0213
    1DPPC   C1A 1421  20.878   1.512   6.946  0.0532  0.2035 -0.0051
    1DPPC   C2A 1422  20.785   1.529   6.456 -0.0715 -0.3488  0.0728
    1DPPC   C3A 1423  20.943   1.514   6.065 -0.0594  0.1121  0.1500
    1DPPC   C4A 1424  20.749   1.679   5.783  0.3251  0.0059  0.3036
    1DPPC   C1B 1425  21.342   1.355   6.733  0.1402 -0.1658 -0.0412
    1DPPC   C2B 1426  21.334   1.644   6.333  0.2116  0.1563 -0.0167
    1DPPC   C3B 1427  21.535   1.596   5.907 -0.4021 -0.2643 -0.1390
    1DPPC   C4B 1428  21.755   1.655   5.445  0.1252 -0.1359  0.0977
    1DPPC   NC3 1429  29.792  10.945   5.945 -0.3388  0.1290 -0.0451
    1DPPC   PO4 1430  29.470  10.677   6.117  0.1917 -0.0391 -0.4689
    1DPPC   GL1 1431  29.447  10.591   5.809  0.1225  0.1728  0.1386
    1DPPC   GL2 1432  29.403  10.342   5.653  0.1390 -0.0762  0.0932
    1DPPC   C1A 1433  29.256  10.717   5.361  0.0128  0.1586 -0.3373
    1DPPC   C2A 1434  29.429  10.913   5.006 -0.0915 -0.2625  0.3754
    1DPPC   C3A 1435  29.501  11.178   4.654 -0.1058  0.0900  0.2113
    1DPPC   C4A 1436  29.291  11.287   4.368  0.2342 -0.1006  0.1693
    1DPPC   C1B 1437  29.510  10.171   5.293  0.0122  0.3309  0.0884
    1DPPC   C2B 1438  29.250  10.396   4.931  0.0176  0.0348 -0.1240
    1DPPC   C3B 1439  29.042  10.465   4.485 -0.0025 -0.0038  0.1953
    1DPPC   C4B 1440  28.704  10.267   4.224  0.1512 -0.0507  0.2048
    1DPPC   NC3 1441  24.026  16.353   6.753  0.0661 -0.0666  0.0588
    1DPPC   PO4 1442  23.968  15.994   6.567 -0.0311  0.2538 -0.1937
    1DPPC   GL1 1443  24.241  15.727   6.304 -0.0319 -0.1443  0.0586
    1DPPC   GL2 1444  24.017  15.545   6.312 -0.1702 -0.0083  0.2352
    1DPPC   C1A 1445  24.576  15.792   6.090  0.2872 -0.0072  0.0548
    1DPPC   C2A 1446  24.512  15.767   5.714 -0.3473  0.0082 -0.1062
    1DPPC   C3A 1447  24.700  15.831   5.409  0.0223  0.0529 -0.0089
    1DPPC   C4A 1448  24.750  15.802   4.966 -0.0134 -0.0213 -0.0222
    1DPPC   C1B 1449  24.186  15.398   5.911  0.1216  0.1599  0.1385
    1DPPC   C2B 1450  24.250  15.359   5.512 -0.3234 -0.0668 -0.0369
    1DPPC   C3B 1451  24.349  15.320   5.076 -0.0055 -0.3162 -0.1335
    1DPPC   C4B 1452  24.280  15.514   4.749 -0.0714  0.2168  0.4648
    1DPPC   NC3 1453  20.884   4.120   7.892 -0.0173 -0.0367 -0.4277
    1DPPC   PO4 1454  21.344   4.111   7.814  0.0716 -0.1078 -0.1622
    1DPPC   GL1 1455  21.451   4.272   7.403 -0.0101  0.6745 -0.0008
    1DPPC   GL2 1456  21.529   4.560   7.441  0.0128  0.0108 -0.3117
    1DPPC   C1A 1457  21.708   4.178   7.142 -0.0760 -0.2800 -0.2506
    1DPPC   C2A 1458  22.055   4.182   6.775 -0.1352 -0.4262  0.0556
    1DPPC   C3A 1459  22.435   4.163   6.449  0.2229 -0.0620  0.1515
    1DPPC   C4A 1460  22.702   4.069   6.136 -0.0098  0.1105 -0.0732
    1DPPC   C1B 1461  21.355   4.677   7.069 -0.1429 -0.0612  0.0388
    1DPPC   C2B 1462  21.313   4.793   6.592  0.0866 -0.1216  0.0176
    1DPPC   C3B 1463  21.125   4.866   6.129 -0.1241 -0.1610  0.1274
    1DPPC   C4B 1464  20.656   4.803   5.947 -0.0008 -0.0932 -0.2796
    1DPPC   NC3 1465  23.317  21.436   6.971 -0.1484 -0.0022 -0.2303
    1DPPC   PO4 1466  23.244  21.932   6.944  0.3636  0.2968 -0.2481
    1DPPC   GL1 1467  23.570  21.947   6.715 -0.4345 -0.2332 -0.0426
    1DPPC   GL2 1468  23.518  21.613   6.535  0.1665 -0.0353 -0.0865
    1DPPC   C1A 1469  23.585  22.156   6.336  0.1085 -0.0505  0.0937
    1DPPC   C2A 1470  23.645  22.213   5.954  0.0173 -0.2402  0.4320
    1DPPC   C3A 1471  23.849  22.408   5.574  0.0074 -0.2354 -0.0180
    1DPPC   C4A 1472  24.025  22.356   5.224  0.1871 -0.3098 -0.3210
    1DPPC   C1B 1473  23.382  21.644   6.044 -0.0429  0.0555 -0.3797
    1DPPC   C2B 1474  23.488  21.530   5.621  0.0590 -0.0907  0.1503
    1DPPC   C3B 1475  23.658  21.519   5.250  0.1797 -0.1801  0.0648
    1DPPC   C4B 1476  23.700  21.187   4.985 -0.0764  0.1936 -0.5045
    1DPPC   NC3 1477  22.219  11.218   7.357 -0.1438 -0.0675 -0.1110
    1DPPC   PO4 1478  22.449  10.963   7.043 -0.1279  0.0848  0.1719
    1DPPC   GL1 1479  22.666  10.900   6.698  0.1461 -0.0456  0.0450
    1DPPC   GL2 1480  22.974  10.843   6.687 -0.0873  0.2957 -0.2526
    1DPPC   C1A 1481  22.514  10.760   6.376 -0.1190  0.1581 -0.0515
    1DPPC   C2A 1482  22.393  10.628   6.069  0.2539  0.3064  0.1924
    1DPPC   C3A 1483  22.503  10.540   5.622  0.0388 -0.2786 -0.0718
    1DPPC   C4A 1484  22.510  10.528   5.305  0.0877  0.0481  0.0474
    1DPPC   C1B 1485  22.985  10.972   6.324  0.1417 -0.1567 -0.0294
    1DPPC   C2B 1486  22.878  10.828   5.917  0.0966 -0.3368 -0.0503
    1DPPC   C3B 1487  22.854  10.841   5.496  0.1559  0.0173 -0.0088
    1DPPC   C4B 1488  22.853  10.651   5.024 -0.1681 -0.1439 -0.0352
    1DPPC   NC3 1489  17.249  12.002   7.195  0.0245  0.0056  0.1859
    1DPPC   PO4 1490  17.675  11.960   7.043  0.2300 -0.1626  0.0354
    1DPPC   GL1 1491  17.740  11.595   6.939  0.0055  0.0419 -0.2503
    1DPPC   GL2 1492  17.437  11.513   6.860 -0.1748 -0.1270  0.0688
    1DPPC   C1A 1493  17.839  11.425   6.541  0.6512  0.1926 -0.1376
    1DPPC   C2A 1494  17.749  11.448   6.066  0.3347  0.0476  0.1995
    1DPPC   C3A 1495  17.585  11.425   5.559 -0.0287 -0.2229  0.1187
    1DPPC   C4A 1496  17.558  11.479   5.147  0.2149 -0.2844  0.0927
    1DPPC   C1B 1497  17.339  11.481   6.436  0.0946  0.1141  0.2897
    1DPPC   C2B 1498  17.237  11.416   6.053 -0.4309  0.0258 -0.1511
    1DPPC   C3B 1499  17.059  11.544   5.629  0.1929 -0.1394  0.0542
    1DPPC   C4B 1500  16.940  11.484   5.163 -0.0563  0.2719  0.3105
    1DPPC   NC3 1501   7.984  18.198   6.272 -0.0785  0.1163  0.0057
    1DPPC   PO4 1502   7.505  18.335   6.067 -0.1863  0.1860 -0.0083
    1DPPC   GL1 1503   7.766  18.329   5.730  0.0479 -0.3418 -0.1598
    1DPPC   GL2 1504   8.056  18.448   5.700 -0.0923 -0.0172  0.4443
    1DPPC   C1A 1505   7.839  18.306   5.219 -0.0454  0.2890 -0.1611
    1DPPC   C2A 1506   8.056  18.404   4.838 -0.0657 -0.1112 -0.0603
    1DPPC   C3A 1507   8.321  18.138   4.421  0.1933  0.1257 -0.3967
    1DPPC   C4A 1508   8.233  18.021   3.960  0.0990  0.3058  0.1022
    1DPPC   C1B 1509   8.237  18.558   5.318  0.0507  0.2106  0.1139
    1DPPC   C2B 1510   8.283  18.915   4.972  0.3087 -0.3791  0.0555
    1DPPC   C3B 1511   8.618  19.241   4.793  0.1332  0.3708  0.2313
    1DPPC   C4B 1512   8.827  19.610   4.763 -0.3047 -0.0336 -0.0111
    1DPPC   NC3 1513   1.860  13.344   6.839  0.0462  0.3224  0.1417
    1DPPC   PO4 1514   1.790  13.725   6.865 -0.3079 -0.1817 -0.0066
    1DPPC   GL1 1515   1.741  13.645   6.470  0.0790 -0.0710 -0.0413
    1DPPC   GL2 1516   1.938  13.573   6.291  0.1500  0.0039 -0.0072
    1DPPC   C1A 1517   1.686  13.875   5.991  0.0072  0.0568  0.0533
    1DPPC   C2A 1518   1.994  14.087   5.723 -0.0753 -0.4674  0.5606
    1DPPC   C3A 1519   2.354  14.232   5.543 -0.1648 -0.0134  0.1468
    1DPPC   C4A 1520   2.750  14.264   5.465  0.1605 -0.2033 -0.0866
    1DPPC   C1B 1521   1.997  13.450   5.856  0.1885 -0.0320  0.1574
    1DPPC   C2B 1522   2.140  13.688   5.514  0.0171  0.0943  0.0827
    1DPPC   C3B 1523   2.505  13.855   5.299  0.1414  0.0926 -0.2738
    1DPPC   C4B 1524   2.414  13.900   4.858 -0.2471  0.0377 -0.0021
    1DPPC   NC3 1525  19.205  20.355   6.367  0.3240 -0.1215 -0.1386
    1DPPC   PO4 1526  19.288  20.212   5.945  0.3587  0.0868 -0.1767
    1DPPC   GL1 1527  19.355  20.109   5.532 -0.4089  0.0416  0.2492
    1DPPC   GL2 1528  19.431  19.819   5.465 -0.0580 -0.1754  0.0197
    1DPPC   C1A 1529  19.434  20.303   5.161 -0.2855 -0.1568 -0.2842
    1DPPC   C2A 1530  19.442  20.295   4.799 -0.0654  0.0368 -0.2104
    1DPPC   C3A 1531  19.274  20.098   4.445 -0.1895 -0.1945  0.0466
    1DPPC   C4A 1532  19.014  19.805   4.214 -0.2125  0.2372 -0.1885
    1DPPC   C1B 1533  19.454  19.683   5.004  0.0458  0.3299 -0.0400
    1DPPC   C2B 1534  19.576  19.616   4.571  0.0364  0.0919  0.0490
    1DPPC   C3B 1535  19.515  19.559   4.257 -0.0661 -0.0445 -0.2251
    1DPPC   C4B 1536  19.289  19.567   3.877  0.0972 -0.0770 -0.0711
    1DPPC   NC3 1537  19.311   3.555   8.063 -0.0070  0.0080 -0.2647
    1DPPC   PO4 1538  19.388   3.244   7.771  0.1486  0.0430 -0.2496
    1DPPC   GL1 1539  19.399   2.979   7.420  0.1801 -0.0476 -0.1197
    1DPPC   GL2 1540  19.092   2.897   7.463  0.0955 -0.2313  0.1615
    1DPPC   C1A 1541  19.597   3.102   6.982 -0.2339 -0.0728  0.2196
    1DPPC   C2A 1542  19.448   3.033   6.559 -0.2880 -0.3357  0.3409
    1DPPC   C3A 1543  19.388   3.304   6.187  0.2090  0.3720  0.0899
    1DPPC   C4A 1544  19.157   3.572   5.912 -0.0431  0.2536 -0.1938
    1DPPC   C1B 1545  19.063   3.070   7.055  0.0339  0.4941 -0.1782
    1DPPC   C2B 1546  19.023   3.379   6.754  0.1273 -0.1502  0.1490
    1DPPC   C3B 1547  19.031   3.567   6.401  0.1960  0.4576  0.2816
    1DPPC   C4B 1548  19.048   3.969   6.214  0.0395  0.1066 -0.1538
    1DPPC   NC3 1549   0.455  24.110   6.337 -0.3112  0.0964  0.2094
    1DPPC   PO4 1550   0.511  23.765   6.022 -0.0765  0.0762 -0.3610
    1DPPC   GL1 1551   0.527  23.832   5.615 -0.1135 -0.2431  0.1204
    1DPPC   GL2 1552   0.653  24.101   5.644 -0.1551 -0.4910 -0.0829
    1DPPC   C1A 1553   0.735  23.777   5.232  0.3185 -0.0489  0.0733
    1DPPC   C2A 1554   0.762  23.750   4.810 -0.1403 -0.0780  0.3288
    1DPPC   C3A 1555   0.710  23.558   4.506  0.3888 -0.2585 -0.0643
    1DPPC   C4A 1556   0.574  23.121   4.381 -0.2134 -0.2807  0.3249
    1DPPC   C1B 1557   0.407  24.160   5.232  0.2697 -0.1617 -0.0778
    1DPPC   C2B 1558   0.299  23.962   4.932 -0.2087 -0.3825  0.2805
    1DPPC   C3B 1559   0.377  23.946   4.483  0.0227 -0.1622 -0.4909
    1DPPC   C4B 1560   0.607  24.018   4.199  0.3151 -0.0074 -0.0224
    1DPPC   NC3 1561  20.815   9.941   7.367 -0.0070  0.5044 -0.1796
    1DPPC   PO4 1562  21.058   9.636   7.208 -0.2284  0.0456  0.0476
    1DPPC   GL1 1563  20.931   9.755   6.773 -0.0671  0.0959  0.1898
    1DPPC   GL2 1564  21.097   9.474   6.711 -0.0024 -0.0066 -0.0624
    1DPPC   C1A 1565  20.965   9.737   6.272  0.0964  0.0999  0.2215
    1DPPC   C2A 1566  21.010   9.606   6.003 -0.0165 -0.0674  0.0795
    1DPPC   C3A 1567  20.967   9.202   5.837  0.0316 -0.1035 -0.0409
    1DPPC   C4A 1568  21.099   8.974   5.503  0.2488  0.2726 -0.1745
    1DPPC   C1B 1569  20.972   9.169   6.382 -0.1693  0.3611  0.1282
    1DPPC   C2B 1570  20.754   8.877   6.082 -0.2864  0.1650 -0.3752
    1DPPC   C3B 1571  20.748   8.622   5.724  0.1438 -0.1944 -0.2314
    1DPPC   C4B 1572  20.417   8.713   5.518  0.0782 -0.3575 -0.0643
    1DPPC   NC3 1573   6.122  12.110   5.880 -0.0498  0.5015 -0.0634
    1DPPC   PO4 1574   6.557  12.132   5.752 -0.3789  0.1769 -0.1989
    1DPPC   GL1 1575   6.309  12.024   5.427 -0.0069 -0.2819  0.2775
    1DPPC   GL2 1576   5.999  12.185   5.301  0.0765  0.0276  0.0323
    1DPPC   C1A 1577   6.287  11.756   4.965 -0.0566  0.3470  0.3444
    1DPPC   C2A 1578   5.980  11.486   4.811 -0.2785  0.0208 -0.1944
    1DPPC   C3A 1579   5.812  11.174   4.499  0.0451 -0.1905 -0.4266
    1DPPC   C4A 1580   5.519  10.925   4.194 -0.0923  0.3407  0.1850
    1DPPC   C1B 1581   5.913  12.067   4.890 -0.0169  0.0780 -0.1027
    1DPPC   C2B 1582   5.839  11.900   4.507  0.2516  0.3835  0.0930
    1DPPC   C3B 1583   5.604  11.572   4.241  0.1073 -0.1757 -0.1964
    1DPPC   C4B 1584   5.221  11.314   4.099  0.1865  0.3955 -0.2534
    1DPPC   NC3 1585  13.377  12.050   6.669  0.2330 -0.2357 -0.0940
    1DPPC   PO4 1586  13.731  12.327   6.647 -0.0628 -0.0381  0.1144
    1DPPC   GL1 1587  13.851  12.375   6.133 -0.1657 -0.2214 -0.1540
    1DPPC   GL2 1588  13.605  12.154   6.211  0.0605  0.0009 -0.0519
    1DPPC   C1A 1589  13.826  12.268   5.735 -0.2241  0.1895 -0.3115
    1DPPC   C2A 1590  13.785  12.078   5.432  0.0567 -0.3644  0.2176
    1DPPC   C3A 1591  13.633  11.964   5.084  0.0216 -0.1007  0.1470
    1DPPC   C4A 1592  13.346  11.874   4.792 -0.1893 -0.4118  0.2992
    1DPPC   C1B 1593  13.464  11.979   5.930 -0.0913  0.2745 -0.1484
    1DPPC   C2B 1594  13.274  11.993   5.546 -0.1309  0.2353 -0.0962
    1DPPC   C3B 1595  13.193  12.198   5.110 -0.0377 -0.2161 -0.0127
    1DPPC   C4B 1596  13.068  12.336   4.746  0.0532 -0.0022  0.1414
    1DPPC   NC3 1597   5.807   8.666   6.498 -0.0810  0.2476  0.2480
    1DPPC   PO4 1598   5.370   8.839   6.355  0.1583 -0.0934  0.2368
    1DPPC   GL1 1599   5.486   8.701   5.944  0.1058  0.0868 -0.0195
    1DPPC   GL2 1600   5.671   8.454   5.936 -0.0604 -0.0951  0.1934
    1DPPC   C1A 1601   5.538   8.823   5.550  0.1182 -0.1771  0.0506
    1DPPC   C2A 1602   5.395   8.854   5.104  0.2547 -0.3944 -0.1202
    1DPPC   C3A 1603   5.368   8.940   4.769  0.1302 -0.2553 -0.0970
    1DPPC   C4A 1604   5.053   8.918   4.641  0.1788  0.1347  0.4282
    1DPPC   C1B 1605   6.038   8.743   5.661 -0.0857 -0.0702  0.2049
    1DPPC   C2B 1606   6.260   8.975   5.396 -0.1038 -0.2683  0.2106
    1DPPC   C3B 1607   6.296   9.363   5.147 -0.1286 -0.2360 -0.0998
    1DPPC   C4B 1608   6.040   9.541   4.868  0.1057 -0.1513 -0.3168
    1DPPC   NC3 1609  28.613   5.375   7.195 -0.0133  0.1752 -0.0695
    1DPPC   PO4 1610  28.548   5.753   6.976 -0.4230  0.1468 -0.1546
    1DPPC   GL1 1611  28.390   5.768   6.596  0.0983 -0.2171  0.2678
    1DPPC   GL2 1612  28.368   5.461   6.420 -0.1938  0.2889 -0.1738
    1DPPC   C1A 1613  28.276   6.077   6.292 -0.1584 -0.4106  0.1805
    1DPPC   C2A 1614  28.170   6.109   5.871 -0.2020 -0.1007 -0.2108
    1DPPC   C3A 1615  28.171   6.083   5.443  0.0871  0.0063  0.0839
    1DPPC   C4A 1616  28.183   6.264   5.008  0.0870 -0.0479  0.0278
    1DPPC   C1B 1617  28.408   5.309   5.957  0.2963  0.3987  0.2064
    1DPPC   C2B 1618  28.580   5.215   5.478  0.2264  0.0365  0.0474
    1DPPC   C3B 1619  28.487   5.292   4.966 -0.2761 -0.0291  0.1427
    1DPPC   C4B 1620  28.496   5.469   4.529  0.2640 -0.3593 -0.1558
    1DPPC   NC3 1621   5.799  28.269   6.005  0.4665  0.0811 -0.4710
    1DPPC   PO4 1622   5.405  28.180   6.024 -0.1491 -0.2728 -0.1171
    1DPPC   GL1 1623   5.308  27.934   5.592  0.2708 -0.1426  0.0590
    1DPPC   GL2 1624   5.055  27.946   5.737 -0.3914 -0.0511 -0.2704
    1DPPC   C1A 1625   5.270  27.876   5.192 -0.1819  0.0829 -0.1930
    1DPPC   C2A 1626   5.043  27.821   4.863  0.4019  0.0152  0.1347
    1DPPC   C3A 1627   4.659  27.665   4.713  0.0006 -0.1856 -0.0320
    1DPPC   C4A 1628   4.376  27.409   4.777 -0.2779 -0.2383 -0.2940
    1DPPC   C1B 1629   4.886  28.139   5.402 -0.0719 -0.1183  0.1583
    1DPPC   C2B 1630   5.136  28.310   4.925  0.0508 -0.1843  0.3122
    1DPPC   C3B 1631   5.238  28.434   4.573 -0.1158 -0.1157  0.0328
    1DPPC   C4B 1632   5.476  28.411   4.251 -0.1320 -0.3570  0.3573
    1DPPC   NC3 1633  21.633  15.280   7.101 -0.1329  0.1120  0.0575
    1DPPC   PO4 1634  21.332  15.033   6.889  0.0226  0.0874  0.1455
    1DPPC   GL1 1635  21.316  14.884   6.389 -0.2323 -0.1363 -0.2786
    1DPPC   GL2 1636  21.517  14.640   6.274 -0.1211  0.0607 -0.1096
    1DPPC   C1A 1637  21.292  14.965   5.920 -0.1831 -0.2695  0.1169
    1DPPC   C2A 1638  21.359  14.929   5.547 -0.0166  0.1320  0.1785
    1DPPC   C3A 1639  21.277  14.695   5.230  0.2410 -0.0631 -0.0450
    1DPPC   C4A 1640  21.298  14.526   4.771 -0.0409  0.1892 -0.0003
    1DPPC   C1B 1641  21.613  14.607   5.875 -0.0439  0.1449 -0.0992
    1DPPC   C2B 1642  21.635  14.419   5.467  0.2189  0.0172 -0.3541
    1DPPC   C3B 1643  21.683  14.264   5.055  0.1133 -0.0276  0.0431
    1DPPC   C4B 1644  21.902  14.455   4.684  0.1018 -0.0633 -0.0949
    1DPPC   NC3 1645  21.804   0.492   7.692  0.1361  0.1577  0.1514
    1DPPC   PO4 1646  21.519   0.199   7.463  0.1294  0.0273  0.3991
    1DPPC   GL1 1647  21.694   0.271   7.072  0.0372 -0.1034 -0.0411
    1DPPC   GL2 1648  21.354   0.141   6.949  0.1052  0.1536 -0.2358
    1DPPC   C1A 1649  21.721   0.515   6.640  0.1041  0.2372  0.2758
    1DPPC   C2A 1650  21.607   0.580   6.204 -0.1751 -0.2309  0.0451
    1DPPC   C3A 1651  21.461   0.548   5.754 -0.1861 -0.0166 -0.2745
    1DPPC   C4A 1652  21.276   0.743   5.447  0.0951 -0.0565  0.1149
    1DPPC   C1B 1653  21.273   0.336   6.481 -0.2058 -0.1357 -0.2989
    1DPPC   C2B 1654  21.024   0.673   6.134  0.1050  0.1127  0.1046
    1DPPC   C3B 1655  20.701   0.447   5.988 -0.1528  0.2046 -0.1112
    1DPPC   C4B 1656  20.454   0.274   5.705  0.0344  0.0422 -0.2197
    1DPPC   NC3 1657  25.525  13.714   6.882  0.3316 -0.0543 -0.3566
    1DPPC   PO4 1658  25.900  13.585   6.962 -0.0438  0.0687  0.0326
    1DPPC   GL1 1659  25.907  13.515   6.619 -0.1333 -0.0460  0.0499
    1DPPC   GL2 1660  25.605  13.591   6.360 -0.2651 -0.2072 -0.0614
    1DPPC   C1A 1661  26.201  13.463   6.298  0.3798 -0.1553  0.3948
    1DPPC   C2A 1662  26.550  13.354   6.104  0.0349 -0.2508  0.1266
    1DPPC   C3A 1663  26.652  13.199   5.745 -0.0984 -0.0143 -0.0509
    1DPPC   C4A 1664  26.781  13.020   5.436  0.2220  0.2509  0.0130
    1DPPC   C1B 1665  25.605  13.705   5.954 -0.2394  0.0387  0.0327
    1DPPC   C2B 1666  25.608  14.095   5.921  0.1505 -0.2079 -0.1959
    1DPPC   C3B 1667  25.276  14.426   6.061  0.0488 -0.0486 -0.1215
    1DPPC   C4B 1668  24.939  14.270   6.325 -0.1170  0.0354 -0.5073
    1DPPC   NC3 1669  17.756   7.766   7.766  0.0225 -0.0246  0.1572
    1DPPC   PO4 1670  17.689   7.321   7.736 -0.1943 -0.1998  0.0734
    1DPPC   GL1 1671  17.873   7.182   7.430  0.2748  0.2027 -0.1765
    1DPPC   GL2 1672  18.195   7.036   7.481 -0.2880 -0.1867  0.2782
    1DPPC   C1A 1673  17.963   7.237   6.944  0.0826  0.1049  0.0319
    1DPPC   C2A 1674  17.988   7.189   6.517 -0.1443  0.1370 -0.3507
    1DPPC   C3A 1675  17.871   7.211   6.145  0.2207 -0.1455 -0.0653
    1DPPC   C4A 1676  17.559   7.356   5.879  0.0656 -0.0557 -0.0011
    1DPPC   C1B 1677  18.334   6.932   7.133 -0.1681  0.0671 -0.1136
    1DPPC   C2B 1678  18.293   6.866   6.744  0.0599  0.1448  0.1831
    1DPPC   C3B 1679  18.237   6.691   6.356 -0.1783 -0.1858 -0.1143
    1DPPC   C4B 1680  18.141   6.497   5.920 -0.1769 -0.3090  0.1192
    1DPPC   NC3 1681  26.738   7.185   7.468  0.1818  0.4963 -0.1660
    1DPPC   PO4 1682  26.694   7.478   7.061 -0.3084 -0.1326  0.0049
    1DPPC   GL1 1683  26.562   7.476   6.614  0.0815 -0.1685 -0.0711
    1DPPC   GL2 1684  26.723   7.384   6.348 -0.0334  0.0886  0.2118
    1DPPC   C1A 1685  26.272   7.447   6.288  0.0069  0.1031  0.0279
    1DPPC   C2A 1686  26.202   7.162   5.880  0.2234  0.1163  0.0516
    1DPPC   C3A 1687  25.958   7.150   5.517  0.3588 -0.3026 -0.1176
    1DPPC   C4A 1688  25.804   7.374   5.104 -0.0137  0.0946 -0.1360
    1DPPC   C1B 1689  26.609   7.482   5.930  0.0258  0.0228 -0.1238
    1DPPC   C2B 1690  26.273   7.577   5.540 -0.2375  0.1193 -0.1822
    1DPPC   C3B 1691  26.129   7.758   5.179  0.0638 -0.0352  0.2153
    1DPPC   C4B 1692  26.045   7.999   4.787  0.2622 -0.1636  0.1524
    1DPPC   NC3 1693  23.093  15.645   6.402  0.4497 -0.0812 -0.1827
    1DPPC   PO4 1694  22.814  15.935   6.316  0.4066 -0.1864 -0.0607
    1DPPC   GL1 1695  22.964  16.173   5.916 -0.0407 -0.1651 -0.0920
    1DPPC   GL2 1696  23.296  16.064   6.096  0.3741  0.2125 -0.2887
    1DPPC   C1A 1697  23.049  16.069   5.540 -0.0172  0.3385  0.0321
    1DPPC   C2A 1698  23.142  15.886   5.089  0.0137 -0.1575 -0.1101
    1DPPC   C3A 1699  23.335  15.615   4.857 -0.1963 -0.3463 -0.2656
    1DPPC   C4A 1700  23.188  15.225   4.638  0.2124  0.3905 -0.2445
    1DPPC   C1B 1701  23.496  15.954   5.668 -0.1707 -0.2435 -0.1015
    1DPPC   C2B 1702  23.572  16.083   5.285  0.2072 -0.1815 -0.0419
    1DPPC   C3B 1703  23.699  16.213   4.941  0.1155  0.0925  0.0655
    1DPPC   C4B 1704  23.930  16.359   4.585  0.0226 -0.1066  0.1339
    1DPPC   NC3 1705  18.874  21.959   6.231  0.0372  0.3352  0.1634
    1DPPC   PO4 1706  18.620  22.101   5.858 -0.1724  0.2779  0.0782
    1DPPC   GL1 1707  18.600  22.060   5.500 -0.0921 -0.2378  0.1722
    1DPPC   GL2 1708  18.837  21.837   5.413  0.1177  0.1210 -0.0821
    1DPPC   C1A 1709  18.450  21.976   5.102  0.0419 -0.1762 -0.2978
    1DPPC   C2A 1710  18.292  21.963   4.774 -0.1791  0.4597 -0.1216
    1DPPC   C3A 1711  18.381  21.850   4.426  0.0766  0.0514  0.0258
    1DPPC   C4A 1712  18.317  21.821   3.963  0.2109  0.0235 -0.2611
    1DPPC   C1B 1713  18.939  21.825   5.045  0.0318 -0.4426 -0.2446
    1DPPC   C2B 1714  18.873  21.984   4.636 -0.2915 -0.0041  0.2299
    1DPPC   C3B 1715  19.059  21.866   4.256 -0.1035  0.0022 -0.2557
    1DPPC   C4B 1716  19.271  21.637   3.924  0.0092  0.0276  0.2963
    1DPPC   NC3 1717  21.385   1.546   7.653 -0.1961 -0.1671  0.1193
    1DPPC   PO4 1718  21.743   1.751   7.566  0.0519  0.1799  0.1057
    1DPPC   GL1 1719  21.512   1.815   7.140 -0.0653 -0.1647  0.1195
    1DPPC   GL2 1720  21.765   1.890   6.956  0.2116  0.0126 -0.1902
    1DPPC   C1A 1721  21.189   1.838   6.824 -0.2426 -0.1664 -0.0546
    1DPPC   C2A 1722  21.022   1.986   6.484 -0.0622  0.1321  0.3240
    1DPPC   C3A 1723  20.742   1.993   6.185 -0.1348  0.2101  0.1669
    1DPPC   C4A 1724  20.316   1.862   6.079  0.0012 -0.1719 -0.0541
    1DPPC   C1B 1725  21.675   1.914   6.570 -0.0553  0.0904 -0.1607
    1DPPC   C2B 1726  21.422   2.084   6.210  0.1509 -0.2206 -0.1777
    1DPPC   C3B 1727  21.143   2.051   5.857 -0.0905 -0.0827  0.3015
    1DPPC   C4B 1728  21.277   1.779   5.527 -0.0119 -0.3138  0.0141
    1DPPC   NC3 1729  13.805  10.779   6.579  0.0445  0.1186 -0.1939
    1DPPC   PO4 1730  14.177  10.865   6.711 -0.0985 -0.1093 -0.2211
    1DPPC   GL1 1731  14.227  11.044   6.293  0.0941  0.0431 -0.0093
    1DPPC   GL2 1732  14.144  10.729   6.195  0.1860 -0.1503  0.1869
    1DPPC   C1A 1733  14.406  11.047   5.898  0.1360  0.1740 -0.3415
    1DPPC   C2A 1734  14.419  10.998   5.495 -0.1855 -0.1534  0.0820
    1DPPC   C3A 1735  14.530  11.069   5.024 -0.1982  0.2089 -0.2461
    1DPPC   C4A 1736  14.396  11.110   4.517  0.2201 -0.3235  0.1625
    1DPPC   C1B 1737  14.162  10.598   5.799  0.2773  0.0207  0.2089
    1DPPC   C2B 1738  14.175  10.639   5.276 -0.2668  0.1013  0.0789
    1DPPC   C3B 1739  14.156  10.715   4.832  0.3897 -0.1596  0.0389
    1DPPC   C4B 1740  13.953  10.838   4.453  0.1678 -0.2701 -0.1327
    1DPPC   NC3 1741  13.955  19.154   5.589 -0.1474  0.1298 -0.1216
    1DPPC   PO4 1742  14.391  19.186   5.659 -0.1908  0.2136 -0.1154
    1DPPC   GL1 1743  14.197  18.852   5.298 -0.3066 -0.0874 -0.3496
    1DPPC   GL2 1744  13.880  18.711   5.354 -0.0498  0.0408  0.2076
    1DPPC   C1A 1745  14.484  18.598   5.061  0.0374 -0.4697 -0.0406
    1DPPC   C2A 1746  14.491  18.763   4.655 -0.0554 -0.1268  0.1944
    1DPPC   C3A 1747  14.283  18.771   4.219 -0.0675  0.2365 -0.0709
    1DPPC   C4A 1748  13.948  19.081   3.939 -0.0200  0.2996  0.2768
    1DPPC   C1B 1749  13.922  18.541   4.990  0.0413  0.0384 -0.0730
    1DPPC   C2B 1750  13.877  18.445   4.655  0.2444  0.5208  0.2727
    1DPPC   C3B 1751  13.836  18.440   4.317 -0.0675 -0.0447  0.1053
    1DPPC   C4B 1752  13.739  18.722   4.135  0.2682 -0.0493  0.1587
    1DPPC   NC3 1753  25.214   3.638   7.240 -0.1261 -0.0466  0.1910
    1DPPC   PO4 1754  24.896   3.212   7.310 -0.2413  0.1046  0.0875
    1DPPC   GL1 1755  24.669   3.262   7.004  0.0027 -0.0464  0.4001
    1DPPC   GL2 1756  24.802   3.380   6.602  0.1157  0.3370 -0.1622
    1DPPC   C1A 1757  24.329   3.082   6.659 -0.2003  0.1956  0.3006
    1DPPC   C2A 1758  24.138   3.184   6.239  0.3046 -0.0629 -0.0605
    1DPPC   C3A 1759  23.872   3.287   6.000 -0.2116 -0.0847  0.1515
    1DPPC   C4A 1760  23.776   3.445   5.719 -0.1420 -0.2425  0.2472
    1DPPC   C1B 1761  24.389   3.554   6.422 -0.1507  0.0494 -0.1256
    1DPPC   C2B 1762  24.175   3.696   5.988 -0.4178 -0.0928  0.1311
    1DPPC   C3B 1763  24.206   3.593   5.574 -0.2013 -0.1665  0.1443
    1DPPC   C4B 1764  23.831   3.661   5.274 -0.2963  0.1260 -0.2678
    1DPPC   NC3 1765  14.643  11.875   6.800 -0.0740 -0.0631  0.3097
    1DPPC   PO4 1766  14.335  11.636   6.640  0.0740  0.0038 -0.1091
    1DPPC   GL1 1767  14.253  11.618   6.257 -0.2406 -0.1006  0.1246
    1DPPC   GL2 1768  13.995  11.793   6.285 -0.2700 -0.2786 -0.0870
    1DPPC   C1A 1769  14.424  11.518   5.885  0.0518 -0.1538 -0.0236
    1DPPC   C2A 1770  14.496  11.496   5.464 -0.1478  0.1538  0.1253
    1DPPC   C3A 1771  14.599  11.599   5.072  0.3292 -0.0189  0.0397
    1DPPC   C4A 1772  14.669  12.032   4.808  0.0790 -0.0261  0.1486
    1DPPC   C1B 1773  13.957  11.790   5.902  0.0926  0.1750  0.2281
    1DPPC   C2B 1774  14.016  11.676   5.577 -0.1285 -0.0653 -0.0207
    1DPPC   C3B 1775  13.990  11.556   5.154  0.0749  0.1434 -0.2183
    1DPPC   C4B 1776  14.113  11.669   4.750  0.1063  0.3030  0.0308
    1DPPC   NC3 1777  16.741  11.617   7.375  0.0277  0.1266  0.0459
    1DPPC   PO4 1778  17.204  11.531   7.333 -0.2871 -0.0354 -0.3362
    1DPPC   GL1 1779  17.012  11.351   6.946  0.2659 -0.0815  0.1800
    1DPPC   GL2 1780  17.066  11.014   6.791 -0.1969  0.2308  0.0518
    1DPPC   C1A 1781  16.761  11.377   6.503  0.0317 -0.0027 -0.0074
    1DPPC   C2A 1782  16.765  11.396   6.085 -0.1562 -0.1592 -0.0206
    1DPPC   C3A 1783  16.648  11.238   5.674 -0.0510 -0.3436  0.3165
    1DPPC   C4A 1784  16.614  11.132   5.258 -0.0476 -0.0385 -0.2427
    1DPPC   C1B 1785  17.052  11.002   6.353 -0.2086  0.1092  0.0960
    1DPPC   C2B 1786  17.108  11.007   5.871 -0.2200 -0.0714  0.2144
    1DPPC   C3B 1787  17.206  11.121   5.439 -0.2264 -0.3555 -0.0992
    1DPPC   C4B 1788  17.415  11.006   5.093  0.2640  0.0904 -0.1618
    1DPPC   NC3 1789  29.742  23.304   6.423  0.2757  0.0430 -0.0184
    1DPPC   PO4 1790   0.128  23.633   6.277 -0.0113 -0.1934  0.4807
    1DPPC   GL1 1791   0.155  23.489   5.862  0.2578  0.0066  0.1127
    1DPPC   GL2 1792   0.041  23.666   5.655  0.1973  0.0401 -0.0687
    1DPPC   C1A 1793   0.368  23.192   5.616  0.1591  0.0881  0.0212
    1DPPC   C2A 1794   0.243  23.056   5.185  0.0171 -0.2764  0.1479
    1DPPC   C3A 1795   0.238  22.923   4.819  0.1152 -0.2146  0.0832
    1DPPC   C4A 1796   0.313  22.672   4.447 -0.1350  0.2010  0.0374
    1DPPC   C1B 1797   0.237  23.537   5.282 -0.3051 -0.2164  0.1473
    1DPPC   C2B 1798   0.105  23.472   4.897  0.0070 -0.5106 -0.0901
    1DPPC   C3B 1799  29.566  23.617   4.617 -0.1776 -0.2422  0.1284
    1DPPC   C4B 1800  29.205  23.546   4.555 -0.2041 -0.4350  0.0630
    1DPPC   NC3 1801  17.696   9.104   7.467  0.0026  0.2018  0.1750
    1DPPC   PO4 1802  17.237   9.003   7.556 -0.1952  0.0606  0.3055
    1DPPC   GL1 1803  17.279   9.113   7.101  0.0322  0.1374  0.1969
    1DPPC   GL2 1804  17.414   9.422   7.168  0.2092 -0.0365  0.1029
    1DPPC   C1A 1805  17.265   9.112   6.623  0.4576  0.0367  0.2283
    1DPPC   C2A 1806  17.057   8.988   6.277  0.2107  0.0748 -0.0964
    1DPPC   C3A 1807  16.861   9.010   5.857  0.1104 -0.3072 -0.2473
    1DPPC   C4A 1808  16.697   9.170   5.440  0.1489 -0.2270  0.1545
    1DPPC   C1B 1809  17.488   9.592   6.795  0.0761  0.2782 -0.0837
    1DPPC   C2B 1810  17.382   9.488   6.353  0.1214  0.0801  0.1489
    1DPPC   C3B 1811  17.264   9.430   5.870 -0.0716  0.1710 -0.0777
    1DPPC   C4B 1812  17.303   9.562   5.368 -0.0783  0.2789 -0.0489
    1DPPC   NC3 1813  20.732  23.609   6.042  0.0454 -0.1514  0.1858
    1DPPC   PO4 1814  20.900  23.349   5.687 -0.1802 -0.1542 -0.1104
    1DPPC   GL1 1815  20.567  23.374   5.388  0.0821 -0.0391  0.0917
    1DPPC   GL2 1816  20.310  23.138   5.337 -0.2524  0.1008 -0.0197
    1DPPC   C1A 1817  20.522  23.364   4.931  0.2695  0.0414 -0.1305
    1DPPC   C2A 1818  20.359  23.590   4.521 -0.0926  0.3044 -0.0639
    1DPPC   C3A 1819  19.895  23.777   4.292 -0.0785  0.2090  0.1375
    1DPPC   C4A 1820  19.517  23.806   4.338 -0.1240 -0.0633  0.0237
    1DPPC   C1B 1821  19.988  23.143   4.971 -0.1850  0.0264  0.2450
    1DPPC   C2B 1822  20.087  23.130   4.556 -0.0645 -0.1966  0.0606
    1DPPC   C3B 1823  20.394  22.950   4.294  0.0200  0.3531 -0.0826
    1DPPC   C4B 1824  20.745  22.863   4.095  0.1270  0.0429 -0.0675
    1DPPC   NC3 1825   1.046  14.301   6.980  0.0671 -0.0436  0.2455
    1DPPC   PO4 1826   0.748  13.951   7.062  0.1194 -0.2150  0.0968
    1DPPC   GL1 1827   0.875  13.903   6.582 -0.0336  0.0105  0.0579
    1DPPC   GL2 1828   1.249  13.918   6.430 -0.0220  0.3115 -0.1351
    1DPPC   C1A 1829   0.770  13.894   6.234  0.0955  0.0609 -0.0065
    1DPPC   C2A 1830   0.430  13.948   5.979 -0.1630  0.2192  0.1453
    1DPPC   C3A 1831   0.373  14.061   5.473 -0.1122  0.0984 -0.1699
    1DPPC   C4A 1832   0.041  14.204   5.322 -0.1258  0.0154 -0.0843
    1DPPC   C1B 1833   1.244  13.626   6.125  0.1132 -0.0604  0.0498
    1DPPC   C2B 1834   1.318  13.658   5.630  0.0042  0.2472 -0.3095
    1DPPC   C3B 1835   1.205  13.873   5.275  0.0594 -0.3299 -0.0284
    1DPPC   C4B 1836   0.913  14.179   4.913 -0.1378 -0.0365  0.3620
    1DPPC   NC3 1837  21.019  17.459   6.437  0.0687  0.1059  0.3121
    1DPPC   PO4 1838  21.381  17.551   6.016 -0.0505  0.3661  0.3286
    1DPPC   GL1 1839  21.521  17.195   5.726  0.3462 -0.3195  0.0933
    1DPPC   GL2 1840  21.810  17.114   5.736 -0.1949  0.1594  0.1238
    1DPPC   C1A 1841  21.349  16.902   5.352  0.1286  0.1484 -0.0477
    1DPPC   C2A 1842  21.249  16.847   4.954  0.4357  0.1293  0.1298
    1DPPC   C3A 1843  21.321  16.783   4.609 -0.3469  0.2068 -0.1522
    1DPPC   C4A 1844  21.368  16.737   4.195  0.0386  0.0973  0.2357
    1DPPC   C1B 1845  21.897  17.050   5.336  0.1594  0.0072 -0.2219
    1DPPC   C2B 1846  22.080  17.008   4.843  0.0515  0.2811 -0.0500
    1DPPC   C3B 1847  22.249  17.039   4.443  0.0141 -0.0033  0.0281
    1DPPC   C4B 1848  22.267  16.804   4.121  0.1794 -0.0788 -0.3023
    1DPPC   NC3 1849  15.766  11.654   7.324  0.2482  0.0670 -0.1598
    1DPPC   PO4 1850  15.524  11.256   7.444 -0.0680 -0.0364 -0.0149
    1DPPC   GL1 1851  15.550  11.207   7.005 -0.0092 -0.4819  0.0777
    1DPPC   GL2 1852  15.421  11.516   6.919 -0.0972  0.0148  0.1402
    1DPPC   C1A 1853  15.580  11.257   6.533  0.2980 -0.1215  0.2695
    1DPPC   C2A 1854  15.681  11.229   5.990  0.0860 -0.1467  0.1698
    1DPPC   C3A 1855  15.671  11.175   5.609 -0.2286 -0.2125  0.0535
    1DPPC   C4A 1856  15.675  10.979   5.229  0.1855  0.1821  0.3106
    1DPPC   C1B 1857  15.648  11.755   6.550  0.0202 -0.0942  0.1714
    1DPPC   C2B 1858  15.720  11.688   6.178 -0.1451  0.0953 -0.0672
    1DPPC   C3B 1859  15.798  11.706   5.717  0.3554 -0.1907 -0.0234
    1DPPC   C4B 1860  16.005  11.905   5.326 -0.0954  0.1086  0.2911
    1DPPC   NC3 1861  18.409   9.436   7.299 -0.1783  0.0837  0.0405
    1DPPC   PO4 1862  18.228   9.186   7.522 -0.2126 -0.1857 -0.0432
    1DPPC   GL1 1863  17.972   8.914   7.161 -0.0736  0.0201  0.0706
    1DPPC   GL2 1864  18.075   8.613   7.091 -0.2289  0.0004 -0.1352
    1DPPC   C1A 1865  17.720   9.137   6.826 -0.4533 -0.1911  0.0976
    1DPPC   C2A 1866  17.714   9.078   6.418 -0.0254  0.1076 -0.2208
    1DPPC   C3A 1867  17.528   8.976   6.108  0.0280 -0.0542  0.2363
    1DPPC   C4A 1868  17.413   8.983   5.686 -0.2864  0.0592  0.0970
    1DPPC   C1B 1869  17.959   8.731   6.690 -0.1967  0.0621  0.0264
    1DPPC   C2B 1870  17.951   8.653   6.187  0.2721 -0.2097  0.0362
    1DPPC   C3B 1871  17.851   8.829   5.747  0.1238 -0.2990  0.0669
    1DPPC   C4B 1872  17.806   8.971   5.406  0.2545 -0.2628 -0.0477
    1DPPC   NC3 1873  17.930  10.701   7.563 -0.1000  0.1260 -0.0794
    1DPPC   PO4 1874  18.069  10.721   7.218  0.0859 -0.1559 -0.0416
    1DPPC   GL1 1875  18.157  10.807   6.883 -0.0937 -0.2268 -0.0029
    1DPPC   GL2 1876  18.324  10.650   6.758 -0.2194  0.0482  0.0958
    1DPPC   C1A 1877  18.150  11.099   6.495  0.3575  0.0805  0.1608
    1DPPC   C2A 1878  18.112  10.995   5.998  0.2373 -0.0249  0.0978
    1DPPC   C3A 1879  18.195  10.915   5.671 -0.1191  0.0484  0.3630
    1DPPC   C4A 1880  18.161  10.683   5.369 -0.2318 -0.1998  0.1561
    1DPPC   C1B 1881  18.260  10.621   6.300  0.1317 -0.1409 -0.1972
    1DPPC   C2B 1882  18.481  10.580   5.932  0.0696  0.2200 -0.0333
    1DPPC   C3B 1883  18.619  10.662   5.528 -0.1331 -0.2376  0.0489
    1DPPC   C4B 1884  18.523  11.076   5.374  0.1137  0.1346 -0.0883
    1DPPC   NC3 1885  16.965   6.826   8.003 -0.1201  0.0132  0.1201
    1DPPC   PO4 1886  17.265   6.605   7.841  0.0072  0.1146 -0.0554
    1DPPC   GL1 1887  17.069   6.540   7.566  0.1393  0.3348 -0.0071
    1DPPC   GL2 1888  16.714   6.508   7.615 -0.1272 -0.2167  0.1975
    1DPPC   C1A 1889  16.885   6.417   7.175  0.0102  0.1655 -0.1244
    1DPPC   C2A 1890  16.744   6.353   6.825  0.0671 -0.1427 -0.1215
    1DPPC   C3A 1891  16.702   6.251   6.509  0.0603  0.0052 -0.0076
    1DPPC   C4A 1892  16.680   5.973   6.122  0.3602 -0.0657  0.1817
    1DPPC   C1B 1893  16.412   6.563   7.343  0.2675  0.1120  0.0853
    1DPPC   C2B 1894  16.271   6.433   6.980  0.2400  0.2824  0.0312
    1DPPC   C3B 1895  16.164   6.363   6.658 -0.1963  0.0008 -0.0815
    1DPPC   C4B 1896  16.248   6.286   6.320  0.1244 -0.0518  0.5982
    1DPPC   NC3 1897  21.161   8.771   7.816 -0.1100 -0.1600 -0.1356
    1DPPC   PO4 1898  21.085   8.783   7.362 -0.1438 -0.2012 -0.0626
    1DPPC   GL1 1899  21.271   8.619   7.121 -0.3502 -0.2217  0.2690
    1DPPC   GL2 1900  21.150   8.717   6.833 -0.1999 -0.1138  0.1019
    1DPPC   C1A 1901  21.512   8.404   6.906 -0.1560  0.2795  0.0382
    1DPPC   C2A 1902  21.561   8.387   6.611 -0.2126  0.2649 -0.0805
    1DPPC   C3A 1903  21.528   8.249   6.167  0.0993  0.1740 -0.2601
    1DPPC   C4A 1904  21.717   8.218   5.756 -0.1127  0.5934  0.1610
    1DPPC   C1B 1905  21.010   8.592   6.480 -0.0625 -0.1745 -0.2163
    1DPPC   C2B 1906  21.004   8.444   6.088  0.0533 -0.1239  0.1969
    1DPPC   C3B 1907  21.150   8.237   5.660 -0.0270 -0.0571 -0.1117
    1DPPC   C4B 1908  21.381   8.045   5.314 -0.1076 -0.2100 -0.2039
    1DPPC   NC3 1909  16.353  10.653   7.273  0.0335  0.0424 -0.0104
    1DPPC   PO4 1910  16.704  10.619   7.078  0.1262  0.0238 -0.1338
    1DPPC   GL1 1911  16.892  10.492   6.692  0.3078  0.3651  0.2829
    1DPPC   GL2 1912  17.170  10.474   6.871  0.3692  0.4006  0.1737
    1DPPC   C1A 1913  16.812  10.467   6.314  0.0537  0.3448  0.0343
    1DPPC   C2A 1914  16.815  10.346   5.852  0.0897 -0.1049 -0.0305
    1DPPC   C3A 1915  16.899  10.287   5.356  0.0250  0.3190 -0.0065
    1DPPC   C4A 1916  16.754  10.334   4.905  0.0173  0.2891 -0.0344
    1DPPC   C1B 1917  17.341  10.413   6.413  0.0324  0.0229 -0.0404
    1DPPC   C2B 1918  17.300  10.478   5.967  0.0083 -0.0854 -0.0517
    1DPPC   C3B 1919  17.245  10.604   5.598 -0.3977 -0.0139  0.1460
    1DPPC   C4B 1920  17.354  10.480   5.149  0.0655  0.2257 -0.1714
    1DPPC   NC3 1921  26.892   9.159   7.258 -0.1588 -0.0391  0.1179
    1DPPC   PO4 1922  26.604   8.861   7.070  0.1290 -0.0643 -0.1038
    1DPPC   GL1 1923  26.411   9.157   6.745 -0.0847  0.1050  0.0643
    1DPPC   GL2 1924  26.242   9.389   6.867  0.0469  0.0964  0.0794
    1DPPC   C1A 1925  26.298   9.196   6.358 -0.0477  0.0127  0.1193
    1DPPC   C2A 1926  26.221   9.067   5.885 -0.0763 -0.2301 -0.3227
    1DPPC   C3A 1927  26.113   9.085   5.451  0.0961  0.1819 -0.0644
    1DPPC   C4A 1928  26.312   8.916   5.021 -0.1055  0.1257 -0.1087
    1DPPC   C1B 1929  25.895   9.204   6.593 -0.3259 -0.2134 -0.0493
    1DPPC   C2B 1930  25.574   8.998   6.340 -0.1574 -0.1476  0.0113
    1DPPC   C3B 1931  25.615   8.982   5.950  0.0982 -0.0335  0.1077
    1DPPC   C4B 1932  25.566   8.977   5.553 -0.1054 -0.1399 -0.2010
    1DPPC   NC3 1933  27.710  10.397   6.977 -0.0994 -0.1779 -0.1364
    1DPPC   PO4 1934  27.198  10.166   6.776  0.1859  0.0547  0.0755
    1DPPC   GL1 1935  27.019  10.289   6.354 -0.1300  0.2939 -0.0394
    1DPPC   GL2 1936  26.971  10.483   6.380 -0.0649  0.2399  0.1274
    1DPPC   C1A 1937  27.093  10.262   5.880 -0.1954 -0.1211 -0.1930
    1DPPC   C2A 1938  26.992  10.318   5.414 -0.0630  0.0676  0.0596
    1DPPC   C3A 1939  26.871  10.192   5.095  0.1912  0.3024 -0.0057
    1DPPC   C4A 1940  26.754  10.058   4.685 -0.1074 -0.0695 -0.4022
    1DPPC   C1B 1941  27.346  10.652   6.135  0.0705  0.0735  0.0257
    1DPPC   C2B 1942  27.422  10.673   5.695 -0.0230 -0.1446 -0.2948
    1DPPC   C3B 1943  27.580  10.736   5.318 -0.2258  0.0791 -0.1657
    1DPPC   C4B 1944  27.821  10.594   4.928  0.0842 -0.0278  0.2847
    1DPPC   NC3 1945  14.560   8.867   7.920 -0.1617 -0.1268  0.2482
    1DPPC   PO4 1946  14.698   8.621   7.535  0.1573 -0.0185  0.1256
    1DPPC   GL1 1947  14.688   8.446   7.201 -0.3742  0.1861 -0.0085
    1DPPC   GL2 1948  14.430   8.490   7.139  0.1334  0.0886 -0.0908
    1DPPC   C1A 1949  14.736   8.436   6.749  0.3698 -0.1428 -0.4305
    1DPPC   C2A 1950  14.959   8.418   6.369  0.0069  0.0177 -0.0282
    1DPPC   C3A 1951  14.700   8.450   6.054 -0.0337 -0.0808  0.1786
    1DPPC   C4A 1952  14.493   8.576   5.711  0.2608 -0.0229  0.2439
    1DPPC   C1B 1953  14.219   8.235   6.883  0.1659 -0.1325  0.0162
    1DPPC   C2B 1954  14.328   7.984   6.534  0.0686  0.1098  0.1544
    1DPPC   C3B 1955  14.078   7.756   6.186  0.2331 -0.0686  0.1127
    1DPPC   C4B 1956  13.753   7.630   5.888  0.1747 -0.2192 -0.0149
    1DPPC   NC3 1957  22.740  17.701   6.294  0.4002  0.1455 -0.1848
    1DPPC   PO4 1958  22.516  18.063   6.263 -0.2229 -0.0209  0.0116
    1DPPC   GL1 1959  22.690  18.005   5.806  0.3082  0.0659  0.0359
    1DPPC   GL2 1960  22.405  18.102   5.561 -0.0043 -0.2261 -0.0730
    1DPPC   C1A 1961  22.882  18.195   5.441  0.1543  0.1064  0.0153
    1DPPC   C2A 1962  22.925  18.285   5.058  0.2209  0.0592  0.2030
    1DPPC   C3A 1963  22.832  18.408   4.807 -0.2812  0.0201  0.2261
    1DPPC   C4A 1964  22.733  18.498   4.373  0.2021 -0.2566 -0.0014
    1DPPC   C1B 1965  22.286  18.226   5.131 -0.1483 -0.1954 -0.2044
    1DPPC   C2B 1966  22.324  18.500   4.705 -0.0326  0.1541 -0.0416
    1DPPC   C3B 1967  22.103  18.546   4.250 -0.0815  0.1886  0.0440
    1DPPC   C4B 1968  21.853  18.471   3.877 -0.2232  0.3103  0.2292
    1DPPC   NC3 1969  25.166  12.780   7.648  0.1386 -0.0445  0.0290
    1DPPC   PO4 1970  25.257  12.884   7.260 -0.1208 -0.1156  0.2895
    1DPPC   GL1 1971  25.155  12.618   6.920 -0.3508 -0.0415  0.0001
    1DPPC   GL2 1972  25.361  12.732   6.659 -0.1427  0.0269 -0.0765
    1DPPC   C1A 1973  25.082  12.448   6.391  0.0233  0.0678 -0.0841
    1DPPC   C2A 1974  25.159  12.341   6.006  0.3347  0.1961 -0.0194
    1DPPC   C3A 1975  25.216  12.419   5.637 -0.2076 -0.1025 -0.0924
    1DPPC   C4A 1976  25.152  12.459   5.188 -0.0878  0.1833 -0.1219
    1DPPC   C1B 1977  25.372  12.790   6.204  0.1499  0.0550  0.0952
    1DPPC   C2B 1978  25.345  12.871   5.784 -0.0139 -0.1155 -0.1351
    1DPPC   C3B 1979  25.434  12.948   5.305 -0.1065  0.1303  0.1320
    1DPPC   C4B 1980  25.421  13.255   5.014 -0.1996  0.0983 -0.3607
    1DPPC   NC3 1981  22.021  10.680   7.151  0.2118  0.1140 -0.1358
    1DPPC   PO4 1982  21.932  11.036   6.970  0.0564  0.2435 -0.0218
    1DPPC   GL1 1983  22.065  10.875   6.601 -0.2483 -0.0056  0.0733
    1DPPC   GL2 1984  22.066  10.501   6.638  0.0464  0.1891  0.1684
    1DPPC   C1A 1985  21.885  10.828   6.286 -0.2618  0.4823 -0.4450
    1DPPC   C2A 1986  21.901  10.703   5.809 -0.0565  0.1328  0.0501
    1DPPC   C3A 1987  22.021  10.570   5.425  0.1236 -0.0974 -0.0896
    1DPPC   C4A 1988  22.100  10.482   4.946  0.1590 -0.2664  0.2575
    1DPPC   C1B 1989  22.049  10.274   6.264  0.2399 -0.1303  0.0337
    1DPPC   C2B 1990  21.854  10.177   5.798  0.2155  0.1720  0.1146
    1DPPC   C3B 1991  21.749  10.142   5.355 -0.1175  0.1197  0.1903
    1DPPC   C4B 1992  21.579  10.376   5.089  0.2818 -0.2453  0.0404
    1DPPC   NC3 1993  15.468  14.605   6.961 -0.0507  0.0216 -0.1478
    1DPPC   PO4 1994  15.843  14.809   6.717  0.0708 -0.3794 -0.0296
    1DPPC   GL1 1995  15.695  14.630   6.314 -0.0418 -0.0692 -0.4542
    1DPPC   GL2 1996  15.902  14.339   6.234 -0.1619 -0.0935 -0.0454
    1DPPC   C1A 1997  15.354  14.477   6.054  0.0801  0.2059  0.2080
    1DPPC   C2A 1998  15.335  14.407   5.621 -0.2280  0.1940 -0.1513
    1DPPC   C3A 1999  15.667  14.248   5.311  0.1527  0.1754  0.1596
    1DPPC   C4A 2000  15.739  14.222   4.846  0.0158  0.0600  0.0547
    1DPPC   C1B 2001  15.889  14.420   5.877  0.4077 -0.1007 -0.2322
    1DPPC   C2B 2002  15.838  14.641   5.505 -0.0044  0.1137 -0.1156
    1DPPC   C3B 2003  15.614  14.742   5.178  0.0153  0.1499 -0.0588
    1DPPC   C4B 2004  15.524  14.766   4.775 -0.2420 -0.1015 -0.0578
    1DPPC   NC3 2005  18.303  12.769   6.930  0.0565 -0.0230 -0.0949
    1DPPC   PO4 2006  18.753  12.841   6.891 -0.0710  0.1356  0.4139
    1DPPC   GL1 2007  18.632  12.791   6.542  0.0011 -0.1648  0.2351
    1DPPC   GL2 2008  18.414  12.865   6.465  0.1628 -0.1434 -0.0419
    1DPPC   C1A 2009  18.806  12.578   6.216  0.1740 -0.0576 -0.0221
    1DPPC   C2A 2010  18.877  12.470   5.827  0.1189 -0.2577 -0.0125
    1DPPC   C3A 2011  19.142  12.494   5.573  0.1163  0.0343 -0.3735
    1DPPC   C4A 2012  19.199  12.202   5.228  0.0448 -0.5416 -0.1478
    1DPPC   C1B 2013  18.317  12.672   6.063  0.2000  0.0296 -0.1045
    1DPPC   C2B 2014  18.416  12.547   5.667 -0.1464 -0.1189 -0.0083
    1DPPC   C3B 2015  18.660  12.446   5.357  0.3584 -0.0521 -0.0230
    1DPPC   C4B 2016  18.970  12.660   5.133  0.3020  0.1958  0.0589
    1DPPC   NC3 2017  17.011  24.169   5.699  0.0962 -0.0031 -0.0650
    1DPPC   PO4 2018  17.321  23.881   5.758  0.3645  0.1985  0.0277
    1DPPC   GL1 2019  17.368  24.003   5.214 -0.0421 -0.3650 -0.0096
    1DPPC   GL2 2020  17.393  24.252   5.223 -0.2285  0.4240  0.1404
    1DPPC   C1A 2021  17.388  23.950   4.798 -0.4529 -0.0344 -0.1956
    1DPPC   C2A 2022  17.494  23.766   4.444  0.2326  0.1017  0.0251
    1DPPC   C3A 2023  17.324  23.757   4.169 -0.2055 -0.2476  0.2213
    1DPPC   C4A 2024  17.303  23.793   3.785  0.1156  0.0413 -0.0205
    1DPPC   C1B 2025  17.322  24.438   4.771 -0.0819 -0.1926  0.0351
    1DPPC   C2B 2026  17.356  24.481   4.275  0.2424 -0.0480 -0.0671
    1DPPC   C3B 2027  17.148  24.262   3.945 -0.0283  0.3264 -0.1637
    1DPPC   C4B 2028  16.768  24.067   3.713 -0.2800 -0.0692  0.1813
    1DPPC   NC3 2029  20.761  13.504   7.288  0.2146  0.2185  0.1477
    1DPPC   PO4 2030  20.935  13.652   7.006  0.0580 -0.0867  0.1488
    1DPPC   GL1 2031  20.979  13.681   6.661  0.0916  0.2766  0.0266
    1DPPC   GL2 2032  20.738  13.388   6.570 -0.1581  0.3009  0.0453
    1DPPC   C1A 2033  21.172  13.594   6.380  0.3196  0.1269  0.1199
    1DPPC   C2A 2034  21.465  13.561   6.016  0.1192  0.0884  0.2062
    1DPPC   C3A 2035  21.603  13.508   5.702 -0.2797 -0.2182  0.1453
    1DPPC   C4A 2036  21.474  13.410   5.326 -0.1496 -0.0069  0.2053
    1DPPC   C1B 2037  20.731  13.478   6.134 -0.1635 -0.1680  0.0423
    1DPPC   C2B 2038  20.762  13.534   5.676 -0.1999 -0.1987  0.1302
    1DPPC   C3B 2039  20.865  13.465   5.337  0.1128 -0.1642 -0.1407
    1DPPC   C4B 2040  21.132  13.447   4.975  0.1228  0.4516  0.2043
    1DPPC   NC3 2041  22.101  16.531   6.997 -0.4090 -0.1978 -0.2255
    1DPPC   PO4 2042  22.023  16.396   6.604 -0.1628 -0.2369 -0.2551
    1DPPC   GL1 2043  22.223  16.365   6.133  0.1411  0.1790 -0.1431
    1DPPC   GL2 2044  22.502  16.309   6.106  0.0078  0.0849  0.2396
    1DPPC   C1A 2045  22.175  16.297   5.764  0.1887  0.1496  0.3169
    1DPPC   C2A 2046  22.213  16.202   5.400  0.1766 -0.2410  0.0211
    1DPPC   C3A 2047  22.206  16.083   4.985  0.3851  0.1423 -0.1420
    1DPPC   C4A 2048  22.258  16.089   4.664 -0.1226 -0.2188 -0.0344
    1DPPC   C1B 2049  22.597  16.395   5.622  0.1286 -0.1556  0.0900
    1DPPC   C2B 2050  22.714  16.380   5.230  0.0020  0.0846  0.0615
    1DPPC   C3B 2051  22.913  16.282   4.820 -0.1665 -0.2465 -0.3818
    1DPPC   C4B 2052  23.228  16.084   4.633  0.1020 -0.0309  0.2472
    1DPPC   NC3 2053  26.386  11.558   7.342  0.3468  0.1778  0.3021
    1DPPC   PO4 2054  26.097  11.399   7.092 -0.0656 -0.0031  0.1278
    1DPPC   GL1 2055  26.299  11.330   6.795  0.0847  0.0962 -0.0960
    1DPPC   GL2 2056  26.226  11.609   6.606 -0.1246 -0.1308 -0.0401
    1DPPC   C1A 2057  26.241  11.063   6.428  0.0527 -0.2163 -0.0625
    1DPPC   C2A 2058  26.064  10.915   6.020  0.1274  0.3847  0.1232
    1DPPC   C3A 2059  26.097  10.960   5.612 -0.3298 -0.1936 -0.0948
    1DPPC   C4A 2060  26.065  10.954   5.196 -0.0099  0.0410 -0.1686
    1DPPC   C1B 2061  26.288  11.580   6.160  0.0607  0.1393 -0.1208
    1DPPC   C2B 2062  26.244  11.483   5.782  0.0797 -0.2047  0.1225
    1DPPC   C3B 2063  26.321  11.387   5.358  0.0067  0.0584  0.0774
    1DPPC   C4B 2064  26.154  11.389   4.942 -0.2339 -0.2392 -0.1795
    1DPPC   NC3 2065  19.070   8.158   7.614 -0.0031 -0.0601 -0.0402
    1DPPC   PO4 2066  19.437   8.401   7.560  0.0578 -0.1010 -0.1123
    1DPPC   GL1 2067  19.359   8.274   7.227  0.0348 -0.1077  0.4457
    1DPPC   GL2 2068  19.125   8.333   7.044 -0.1341 -0.1392 -0.0053
    1DPPC   C1A 2069  19.639   8.225   6.800  0.0054 -0.0168  0.0288
    1DPPC   C2A 2070  19.610   8.172   6.391 -0.2276 -0.0116 -0.1253
    1DPPC   C3A 2071  19.660   8.073   5.942  0.1244  0.2936  0.0827
    1DPPC   C4A 2072  19.527   8.249   5.537  0.1877  0.2161  0.3597
    1DPPC   C1B 2073  19.191   8.310   6.623  0.0836 -0.3099 -0.2249
    1DPPC   C2B 2074  19.207   8.343   6.137 -0.0870  0.1791  0.0750
    1DPPC   C3B 2075  19.080   8.359   5.759  0.3390  0.3054 -0.1180
    1DPPC   C4B 2076  18.887   8.585   5.404  0.0280  0.0584  0.0898
    1DPPC   NC3 2077  24.514  17.570   6.433  0.1440  0.3498  0.0524
    1DPPC   PO4 2078  24.928  17.654   6.381 -0.0757 -0.1178  0.0926
    1DPPC   GL1 2079  25.132  17.607   6.009  0.0322 -0.2999 -0.2869
    1DPPC   GL2 2080  25.357  17.890   5.929 -0.2657 -0.0332  0.3115
    1DPPC   C1A 2081  25.182  17.375   5.522 -0.0827 -0.0496 -0.6034
    1DPPC   C2A 2082  25.374  17.195   5.218  0.1504  0.3284  0.3073
    1DPPC   C3A 2083  25.573  17.128   4.827 -0.0621 -0.0285 -0.0713
    1DPPC   C4A 2084  25.273  17.081   4.463  0.0168 -0.3034  0.0080
    1DPPC   C1B 2085  25.303  17.839   5.555 -0.0177 -0.1579 -0.3780
    1DPPC   C2B 2086  25.106  17.761   5.136  0.1911  0.1176 -0.0111
    1DPPC   C3B 2087  25.170  17.426   4.818 -0.1147 -0.1117  0.1712
    1DPPC   C4B 2088  25.025  16.944   4.872  0.0103 -0.2218  0.1172
    1DPPC   NC3 2089  14.507  15.338   6.354  0.0906  0.1631 -0.0415
    1DPPC   PO4 2090  14.425  15.660   6.015 -0.3040 -0.0295 -0.0731
    1DPPC   GL1 2091  14.675  15.547   5.649 -0.0774 -0.1764 -0.0877
    1DPPC   GL2 2092  15.008  15.596   5.521 -0.1830  0.3887  0.1317
    1DPPC   C1A 2093  14.644  15.295   5.384  0.2816 -0.3125  0.2847
    1DPPC   C2A 2094  14.568  14.918   5.160  0.1523  0.0043 -0.0201
    1DPPC   C3A 2095  14.304  14.761   4.803  0.1667 -0.2027  0.0445
    1DPPC   C4A 2096  14.340  14.800   4.379 -0.0289 -0.0610  0.0143
    1DPPC   C1B 2097  14.880  15.707   5.069 -0.0760  0.2002 -0.1992
    1DPPC   C2B 2098  14.798  15.288   4.922 -0.1933 -0.0883  0.0258
    1DPPC   C3B 2099  14.613  15.179   4.630  0.0884  0.2814 -0.0873
    1DPPC   C4B 2100  14.331  15.270   4.354 -0.0202  0.0359  0.0319
    1DPPC   NC3 2101  22.410   9.763   7.437  0.1511 -0.1846 -0.1716
    1DPPC   PO4 2102  22.072   9.431   7.295 -0.2351  0.0821  0.4386
    1DPPC   GL1 2103  21.958   9.445   6.901 -0.1491 -0.0123  0.0219
    1DPPC   GL2 2104  21.671   9.324   6.857 -0.1970 -0.0368 -0.1989
    1DPPC   C1A 2105  21.988   9.113   6.490  0.4180 -0.1199  0.0166
    1DPPC   C2A 2106  21.911   9.142   6.087 -0.1647  0.0549 -0.0959
    1DPPC   C3A 2107  21.964   9.021   5.652  0.0429  0.2322  0.0197
    1DPPC   C4A 2108  22.113   8.733   5.403 -0.1669 -0.1853 -0.0549
    1DPPC   C1B 2109  21.650   9.496   6.480 -0.0302  0.1707  0.1354
    1DPPC   C2B 2110  21.481   9.395   6.043 -0.1125  0.0680 -0.2548
    1DPPC   C3B 2111  21.513   9.237   5.605  0.2610  0.0155 -0.2029
    1DPPC   C4B 2112  21.450   9.242   5.200 -0.1079  0.0245  0.3592
    1DPPC   NC3 2113  19.778  19.990   5.980 -0.0331  0.0616  0.2895
    1DPPC   PO4 2114  20.247  19.907   6.045 -0.1169 -0.0295  0.2419
    1DPPC   GL1 2115  20.145  19.915   5.648  0.1825 -0.2652 -0.0656
    1DPPC   GL2 2116  20.377  20.054   5.432 -0.0693 -0.0122  0.3090
    1DPPC   C1A 2117  19.843  20.014   5.336 -0.1656  0.1006 -0.0918
    1DPPC   C2A 2118  19.813  19.967   4.808 -0.1523  0.0871 -0.0805
    1DPPC   C3A 2119  19.867  19.972   4.345  0.1052  0.2103 -0.2377
    1DPPC   C4A 2120  19.652  19.935   3.924 -0.0183  0.0167  0.0381
    1DPPC   C1B 2121  20.315  19.888   5.020  0.2910  0.1606 -0.0126
    1DPPC   C2B 2122  20.339  19.874   4.555 -0.1012 -0.2914 -0.0337
    1DPPC   C3B 2123  20.255  19.663   4.186  0.0996  0.0239  0.2266
    1DPPC   C4B 2124  20.399  19.598   3.793 -0.1041 -0.2657 -0.0334
    1DPPC   NC3 2125  18.791  20.835   5.522 -0.0022  0.0090 -0.0598
    1DPPC   PO4 2126  18.420  20.574   5.580  0.4133 -0.3578  0.0569
    1DPPC   GL1 2127  18.459  20.621   5.102  0.0615 -0.1251  0.1495
    1DPPC   GL2 2128  18.516  20.948   5.151 -0.3996 -0.0191  0.1637
    1DPPC   C1A 2129  18.281  20.604   4.662  0.1258 -0.3703  0.0202
    1DPPC   C2A 2130  18.342  20.545   4.249  0.1261  0.3437  0.0889
    1DPPC   C3A 2131  18.162  20.262   3.869 -0.0277 -0.1876  0.2519
    1DPPC   C4A 2132  17.871  19.986   3.791  0.1758 -0.1206 -0.1638
    1DPPC   C1B 2133  18.694  20.980   4.766 -0.3065  0.2841 -0.2164
    1DPPC   C2B 2134  18.643  20.956   4.359  0.1577 -0.0632  0.1550
    1DPPC   C3B 2135  18.733  20.836   3.946  0.0476 -0.1884  0.0504
    1DPPC   C4B 2136  18.852  20.695   3.498 -0.1507  0.2523  0.0144
    1DPPC   NC3 2137  12.361  14.655   6.495 -0.2214 -0.1182  0.0519
    1DPPC   PO4 2138  11.976  14.656   6.450  0.0685  0.3111 -0.0313
    1DPPC   GL1 2139  12.104  14.693   5.989  0.0374 -0.2667 -0.0380
    1DPPC   GL2 2140  12.192  14.304   5.778  0.2293 -0.0151  0.1959
    1DPPC   C1A 2141  12.338  14.843   5.633  0.1744  0.2543 -0.3120
    1DPPC   C2A 2142  12.679  14.910   5.372  0.2010  0.0618 -0.0764
    1DPPC   C3A 2143  12.893  15.163   5.077 -0.2195  0.1044 -0.0463
    1DPPC   C4A 2144  13.102  15.246   4.755  0.3095 -0.0236 -0.1661
    1DPPC   C1B 2145  12.233  14.348   5.332  0.2340  0.0065  0.0546
    1DPPC   C2B 2146  12.494  14.532   5.107  0.0615 -0.0430  0.5126
    1DPPC   C3B 2147  12.621  14.754   4.781  0.0100 -0.0930 -0.0910
    1DPPC   C4B 2148  12.936  14.702   4.485  0.2352  0.3582  0.1022
    1DPPC   NC3 2149  18.951   9.669   7.519 -0.2842 -0.2653  0.2187
    1DPPC   PO4 2150  19.230  10.082   7.519 -0.1318  0.2820  0.0534
    1DPPC   GL1 2151  19.291   9.832   7.143 -0.4348 -0.0671  0.1749
    1DPPC   GL2 2152  19.359   9.559   7.247  0.1324  0.0892 -0.0026
    1DPPC   C1A 2153  19.100   9.629   6.726 -0.1225  0.1339 -0.0074
    1DPPC   C2A 2154  19.032   9.439   6.288 -0.1174 -0.0560 -0.1769
    1DPPC   C3A 2155  19.059   9.388   5.784 -0.2294 -0.2630  0.0183
    1DPPC   C4A 2156  19.076   9.323   5.333  0.0631 -0.1226 -0.7303
    1DPPC   C1B 2157  19.338   9.248   7.000  0.0620  0.1570  0.1356
    1DPPC   C2B 2158  19.277   9.111   6.578  0.2569 -0.2283 -0.1613
    1DPPC   C3B 2159  19.440   9.161   6.229  0.0005 -0.0688  0.0491
    1DPPC   C4B 2160  19.599   9.102   5.905  0.0712 -0.1160  0.1868
    1DPPC   NC3 2161  18.234   8.657   7.559  0.0882 -0.0408  0.0790
    1DPPC   PO4 2162  18.567   8.377   7.651  0.0883  0.0555 -0.3286
    1DPPC   GL1 2163  18.584   8.449   7.226 -0.1493 -0.0318  0.0034
    1DPPC   GL2 2164  18.531   8.811   7.147 -0.0578 -0.2503 -0.1899
    1DPPC   C1A 2165  18.695   8.311   6.841 -0.3459 -0.1106  0.2061
    1DPPC   C2A 2166  18.799   8.137   6.446  0.1198 -0.2313  0.0914
    1DPPC   C3A 2167  18.696   8.199   6.061  0.0853 -0.1758  0.0419
    1DPPC   C4A 2168  18.709   7.851   5.732  0.3307  0.2625  0.0135
    1DPPC   C1B 2169  18.512   8.787   6.658  0.2682 -0.0451 -0.0566
    1DPPC   C2B 2170  18.469   8.607   6.287  0.0858 -0.0773  0.2737
    1DPPC   C3B 2171  18.294   8.473   5.898  0.0640  0.1343  0.4236
    1DPPC   C4B 2172  18.407   8.561   5.401  0.0034  0.0059 -0.4719
    1DPPC   NC3 2173  21.587  18.715   6.407 -0.0898  0.3393 -0.0197
    1DPPC   PO4 2174  21.857  18.448   6.079 -0.0287  0.2730 -0.0457
    1DPPC   GL1 2175  22.069  18.429   5.685 -0.2676 -0.2442 -0.1475
    1DPPC   GL2 2176  21.901  18.150   5.522 -0.2189 -0.2877 -0.1784
    1DPPC   C1A 2177  22.171  18.637   5.390  0.0318 -0.2703  0.0167
    1DPPC   C2A 2178  22.177  18.847   4.993 -0.1164  0.0230 -0.1405
    1DPPC   C3A 2179  22.300  18.943   4.517  0.0217 -0.0321 -0.0536
    1DPPC   C4A 2180  22.281  19.023   4.051 -0.2397  0.0089 -0.0311
    1DPPC   C1B 2181  21.858  17.974   5.134 -0.0511  0.0147 -0.1663
    1DPPC   C2B 2182  22.020  18.012   4.745  0.0528  0.2860 -0.2141
    1DPPC   C3B 2183  22.263  18.118   4.411  0.1251  0.1294  0.1877
    1DPPC   C4B 2184  22.372  18.331   3.932 -0.2967  0.2192 -0.2483
    1DPPC   NC3 2185  13.956  14.115   6.872  0.0448  0.0162 -0.0177
    1DPPC   PO4 2186  13.950  14.106   6.531  0.0396 -0.1115  0.0422
    1DPPC   GL1 2187  14.124  13.890   6.270  0.0425  0.0120  0.0995
    1DPPC   GL2 2188  14.463  13.963   6.247  0.0967  0.2065 -0.0718
    1DPPC   C1A 2189  14.247  13.737   5.829 -0.0393  0.0781  0.1724
    1DPPC   C2A 2190  14.309  13.575   5.439 -0.3217  0.0054 -0.2597
    1DPPC   C3A 2191  14.198  13.501   5.058  0.0554 -0.1835 -0.1159
    1DPPC   C4A 2192  14.348  13.488   4.583  0.0771  0.3443  0.1522
    1DPPC   C1B 2193  14.798  13.994   6.000 -0.1088  0.1929 -0.2122
    1DPPC   C2B 2194  15.034  13.984   5.633 -0.1866  0.0646  0.1655
    1DPPC   C3B 2195  15.193  13.861   5.221  0.2502 -0.0823 -0.2875
    1DPPC   C4B 2196  15.180  13.468   4.958 -0.2986  0.0147 -0.1300
    1DPPC   NC3 2197  23.465  28.329   7.460 -0.0611 -0.1094  0.0664
    1DPPC   PO4 2198  23.454  28.602   7.107 -0.0228  0.0680  0.0616
    1DPPC   GL1 2199  23.448  28.937   6.728 -0.1365 -0.1044 -0.1863
    1DPPC   GL2 2200  23.239  29.067   6.525 -0.1130 -0.3297 -0.2388
    1DPPC   C1A 2201  23.745  28.986   6.349 -0.2407  0.1509 -0.1536
    1DPPC   C2A 2202  23.740  29.243   5.952  0.0036  0.1452  0.3158
    1DPPC   C3A 2203  23.697  29.267   5.484 -0.1305 -0.1881 -0.0751
    1DPPC   C4A 2204  23.329  29.519   5.386  0.2523 -0.1781  0.0503
    1DPPC   C1B 2205  22.955  29.034   6.186 -0.2683 -0.2853  0.3381
    1DPPC   C2B 2206  22.611  28.909   5.896  0.1930 -0.1271 -0.2142
    1DPPC   C3B 2207  22.456  28.700   5.573 -0.2795 -0.1270  0.0500
    1DPPC   C4B 2208  22.333  28.813   5.114  0.0777 -0.0451  0.3743
    1DPPC   NC3 2209  19.695  13.209   7.275 -0.0754 -0.0175  0.2354
    1DPPC   PO4 2210  19.978  13.512   6.919 -0.0111  0.0041 -0.0232
    1DPPC   GL1 2211  19.880  13.181   6.681 -0.0536  0.0209  0.0741
    1DPPC   GL2 2212  20.141  13.124   6.535 -0.5883 -0.3060  0.0499
    1DPPC   C1A 2213  19.778  12.817   6.423  0.2464  0.1511  0.3694
    1DPPC   C2A 2214  19.771  12.775   6.017  0.0195 -0.0375 -0.2121
    1DPPC   C3A 2215  19.659  12.775   5.574 -0.0371  0.3972  0.1665
    1DPPC   C4A 2216  19.481  12.573   5.216  0.2786  0.0429 -0.2819
    1DPPC   C1B 2217  20.308  13.190   6.122 -0.0408  0.0476  0.1036
    1DPPC   C2B 2218  20.369  13.211   5.650 -0.0408  0.2996 -0.0122
    1DPPC   C3B 2219  20.433  13.237   5.219  0.1089 -0.1516 -0.0291
    1DPPC   C4B 2220  20.406  13.512   5.002  0.3633 -0.2227  0.1738
    1DPPC   NC3 2221  28.384   0.521   6.353 -0.2056 -0.1022  0.0757
    1DPPC   PO4 2222  27.944   0.333   6.439 -0.0261  0.1767  0.0268
    1DPPC   GL1 2223  27.724   0.180   5.934  0.0550 -0.0691  0.0397
    1DPPC   GL2 2224  27.528   0.011   5.924  0.1113 -0.0162  0.0265
    1DPPC   C1A 2225  27.453   0.307   5.568 -0.0441 -0.1971 -0.4108
    1DPPC   C2A 2226  27.534   0.550   5.170  0.0343 -0.3034 -0.0840
    1DPPC   C3A 2227  27.367   0.742   4.744 -0.3925  0.0785  0.2631
    1DPPC   C4A 2228  27.507   0.912   4.368  0.0004 -0.4749  0.2019
    1DPPC   C1B 2229  27.144   0.212   5.966  0.0104 -0.0110  0.0681
    1DPPC   C2B 2230  26.914   0.242   5.713  0.1291  0.0865  0.0720
    1DPPC   C3B 2231  26.963   0.440   5.273  0.0047 -0.2183  0.0650
    1DPPC   C4B 2232  27.037   0.408   4.895 -0.1333 -0.1571  0.0321
    1DPPC   NC3 2233  27.661   8.162   6.628  0.0941 -0.1228  0.1096
    1DPPC   PO4 2234  27.421   7.786   6.899 -0.0993  0.2003  0.0675
    1DPPC   GL1 2235  27.372   7.752   6.405  0.1464 -0.2496 -0.0237
    1DPPC   GL2 2236  27.387   7.931   6.137  0.0300 -0.0411  0.2095
    1DPPC   C1A 2237  27.088   7.478   6.065  0.1781 -0.1059  0.0610
    1DPPC   C2A 2238  27.222   7.508   5.589 -0.0503  0.1362 -0.1864
    1DPPC   C3A 2239  27.302   7.635   5.164  0.0472 -0.0485  0.0409
    1DPPC   C4A 2240  27.250   7.813   4.751 -0.0706 -0.0078 -0.1599
    1DPPC   C1B 2241  27.550   7.609   5.935  0.0444  0.2369  0.0317
    1DPPC   C2B 2242  27.598   7.190   5.782  0.0029 -0.0446  0.0676
    1DPPC   C3B 2243  27.901   6.915   5.474  0.2107  0.1092 -0.2491
    1DPPC   C4B 2244  27.716   6.617   5.101 -0.0013  0.0289  0.1783
    1DPPC   NC3 2245  22.780   4.146   7.696  0.0473 -0.1643 -0.0943
    1DPPC   PO4 2246  22.840   3.758   7.348  0.5505  0.0373  0.1001
    1DPPC   GL1 2247  23.046   3.516   6.974 -0.1680  0.0846 -0.2654
    1DPPC   GL2 2248  23.108   3.193   7.051  0.1002 -0.1070  0.2370
    1DPPC   C1A 2249  23.326   3.580   6.662 -0.0822  0.1142  0.0276
    1DPPC   C2A 2250  23.270   3.780   6.290 -0.0477  0.0743 -0.1086
    1DPPC   C3A 2251  23.112   4.052   5.952 -0.0179  0.2172 -0.0576
    1DPPC   C4A 2252  23.253   4.446   5.678  0.0405  0.1067 -0.0783
    1DPPC   C1B 2253  23.339   3.099   6.711  0.2886 -0.1592 -0.1181
    1DPPC   C2B 2254  23.400   3.208   6.280 -0.1286  0.0106 -0.2615
    1DPPC   C3B 2255  23.304   3.460   5.925  0.0649  0.2111 -0.2343
    1DPPC   C4B 2256  23.372   3.575   5.486  0.0589 -0.3626  0.1926
    1DPPC   NC3 2257  10.469  18.899   6.091 -0.1124 -0.0152  0.1479
    1DPPC   PO4 2258  10.443  19.212   6.094  0.0358  0.3412  0.0658
    1DPPC   GL1 2259  10.486  19.530   5.769 -0.1451  0.0560 -0.1598
    1DPPC   GL2 2260  10.805  19.690   5.672 -0.1626 -0.0374  0.1401
    1DPPC   C1A 2261  10.472  19.559   5.234  0.1837  0.2005  0.2063
    1DPPC   C2A 2262  10.182  19.551   4.977 -0.2411 -0.0933 -0.0458
    1DPPC   C3A 2263   9.772  19.734   4.885  0.0189 -0.1947  0.1255
    1DPPC   C4A 2264   9.335  19.761   4.738 -0.0431 -0.0658  0.0469
    1DPPC   C1B 2265  10.923  19.849   5.264 -0.0303  0.0806 -0.0841
    1DPPC   C2B 2266  10.832  19.920   4.821 -0.1947  0.0336  0.4900
    1DPPC   C3B 2267  10.407  19.774   4.599 -0.3208 -0.3157  0.2839
    1DPPC   C4B 2268   9.968  19.477   4.505  0.4179  0.0750 -0.2689
    1DPPC   NC3 2269  21.037  11.469   7.070 -0.2394  0.2179 -0.3287
    1DPPC   PO4 2270  21.454  11.163   6.943  0.3845 -0.2665 -0.1583
    1DPPC   GL1 2271  21.596  11.182   6.535 -0.0705 -0.1722 -0.2530
    1DPPC   GL2 2272  21.894  11.343   6.416 -0.0040 -0.2089  0.0438
    1DPPC   C1A 2273  21.406  11.055   6.172  0.1488  0.0519  0.1595
    1DPPC   C2A 2274  21.271  11.003   5.750  0.1270  0.0851 -0.0588
    1DPPC   C3A 2275  21.029  10.761   5.604 -0.1066 -0.1961  0.1849
    1DPPC   C4A 2276  21.094  10.533   5.172 -0.0053 -0.1191 -0.1439
    1DPPC   C1B 2277  21.868  11.240   5.979 -0.2405  0.1396 -0.3531
    1DPPC   C2B 2278  21.759  11.228   5.532 -0.0124 -0.2349 -0.0375
    1DPPC   C3B 2279  21.594  11.238   5.109 -0.0849 -0.2291  0.0351
    1DPPC   C4B 2280  21.169  11.460   4.939 -0.1306  0.2313  0.1011
    1DPPC   NC3 2281  18.872  21.603   5.837  0.1267  0.4338  0.0280
    1DPPC   PO4 2282  18.780  21.343   5.443 -0.1646  0.2993 -0.1443
    1DPPC   GL1 2283  19.057  21.232   5.085  0.1143 -0.2368 -0.1016
    1DPPC   GL2 2284  19.295  21.424   4.910 -0.1609  0.0947  0.0723
    1DPPC   C1A 2285  19.276  20.903   4.695  0.2330 -0.0657 -0.0642
    1DPPC   C2A 2286  19.351  20.603   4.428 -0.2150 -0.3802 -0.0352
    1DPPC   C3A 2287  19.594  20.384   4.084 -0.2452 -0.0824  0.0990
    1DPPC   C4A 2288  19.753  20.374   3.687 -0.3240 -0.1377  0.1722
    1DPPC   C1B 2289  19.382  21.833   4.743 -0.1280  0.2472 -0.2026
    1DPPC   C2B 2290  19.562  21.788   4.263  0.1638  0.0852 -0.0261
    1DPPC   C3B 2291  19.760  21.420   3.924 -0.2379  0.1328  0.2058
    1DPPC   C4B 2292  19.627  21.232   3.536  0.1051  0.2437  0.0192
    1DPPC   NC3 2293  18.678  27.577   7.166  0.3079 -0.1262  0.1470
    1DPPC   PO4 2294  18.281  27.482   7.017 -0.0856  0.1807 -0.0363
    1DPPC   GL1 2295  18.389  27.600   6.613 -0.0077 -0.3572  0.5145
    1DPPC   GL2 2296  18.080  27.419   6.388  0.0449  0.1288 -0.0415
    1DPPC   C1A 2297  18.506  27.922   6.417 -0.1146  0.3615  0.2014
    1DPPC   C2A 2298  18.460  28.302   6.093  0.2301 -0.0870  0.0232
    1DPPC   C3A 2299  18.359  28.654   5.854  0.1339 -0.1706  0.0054
    1DPPC   C4A 2300  18.548  28.872   5.608  0.1514 -0.0849  0.2139
    1DPPC   C1B 2301  18.032  27.785   6.226 -0.0351  0.0082  0.1005
    1DPPC   C2B 2302  18.347  27.846   5.846 -0.0712 -0.0087 -0.1947
    1DPPC   C3B 2303  18.419  27.995   5.442 -0.1028 -0.1380  0.1047
    1DPPC   C4B 2304  18.233  28.334   5.311 -0.0996  0.2125 -0.0725
    1DPPC   NC3 2305  21.730   2.656   7.676  0.2910 -0.1722  0.1453
    1DPPC   PO4 2306  22.218   2.581   7.708  0.1959  0.1426  0.2257
    1DPPC   GL1 2307  22.090   2.669   7.275  0.0156 -0.1198  0.1549
    1DPPC   GL2 2308  22.311   2.714   7.095  0.1718  0.1066 -0.2212
    1DPPC   C1A 2309  21.703   2.697   6.985 -0.2698 -0.0472  0.0847
    1DPPC   C2A 2310  21.557   2.884   6.556 -0.1042  0.0162  0.2490
    1DPPC   C3A 2311  21.447   3.032   6.123 -0.0621 -0.1604 -0.2164
    1DPPC   C4A 2312  21.436   3.126   5.728 -0.1934  0.1385  0.0584
    1DPPC   C1B 2313  22.151   2.862   6.769 -0.1777 -0.0131 -0.2454
    1DPPC   C2B 2314  22.237   2.734   6.369 -0.4263  0.1374 -0.1225
    1DPPC   C3B 2315  22.482   2.821   6.057  0.1571 -0.1970 -0.2177
    1DPPC   C4B 2316  22.581   3.066   5.806  0.0407  0.1720  0.4570
    1DPPC   NC3 2317  22.655  15.023   6.791  0.1287  0.2221 -0.2068
    1DPPC   PO4 2318  22.785  15.253   6.449  0.0451  0.2497  0.0218
    1DPPC   GL1 2319  22.809  15.321   6.008  0.0526 -0.1876  0.2212
    1DPPC   GL2 2320  23.064  15.624   5.901 -0.5603  0.0765 -0.1864
    1DPPC   C1A 2321  22.730  15.170   5.519 -0.1980  0.0856 -0.1421
    1DPPC   C2A 2322  22.450  15.009   5.163  0.0280 -0.1746  0.1974
    1DPPC   C3A 2323  22.201  15.033   4.787  0.1337 -0.0378  0.4350
    1DPPC   C4A 2324  21.944  14.870   4.474  0.1163  0.3051 -0.1921
    1DPPC   C1B 2325  23.117  15.535   5.461 -0.0594  0.0545 -0.0302
    1DPPC   C2B 2326  22.930  15.329   5.061 -0.3526 -0.2851  0.2031
    1DPPC   C3B 2327  22.666  15.172   4.733 -0.0395  0.1607  0.4082
    1DPPC   C4B 2328  22.590  15.168   4.242  0.0626  0.1378  0.0356
    1DPPC   NC3 2329  28.432   9.844   6.332  0.0338  0.0202 -0.0488
    1DPPC   PO4 2330  28.663  10.163   6.208 -0.0428 -0.0317 -0.1402
    1DPPC   GL1 2331  28.482  10.079   5.871 -0.1135 -0.1648  0.2083
    1DPPC   GL2 2332  28.510   9.800   5.674  0.1204  0.0539 -0.0329
    1DPPC   C1A 2333  28.361  10.274   5.523  0.0790  0.1206 -0.2175
    1DPPC   C2A 2334  28.276  10.230   5.138  0.2133 -0.2977 -0.5607
    1DPPC   C3A 2335  28.312  10.228   4.775  0.3939  0.0120  0.0941
    1DPPC   C4A 2336  28.502  10.582   4.596  0.0938  0.2595  0.0821
    1DPPC   C1B 2337  28.479   9.798   5.289  0.1894  0.0131  0.3760
    1DPPC   C2B 2338  28.322   9.740   4.937 -0.0584  0.3831 -0.0620
    1DPPC   C3B 2339  27.954   9.792   4.590  0.0040 -0.1449 -0.0272
    1DPPC   C4B 2340  27.762  10.242   4.601 -0.0976 -0.1276  0.3665
    1DPPC   NC3 2341   7.727   4.983   6.711  0.0180  0.3163  0.0946
    1DPPC   PO4 2342   8.205   4.993   6.716 -0.0498 -0.2998  0.2165
    1DPPC   GL1 2343   8.168   5.002   6.347  0.0417 -0.0899  0.3667
    1DPPC   GL2 2344   8.421   5.269   6.309 -0.4169  0.3705 -0.3044
    1DPPC   C1A 2345   8.074   4.872   5.861 -0.0634 -0.0544  0.3505
    1DPPC   C2A 2346   7.874   4.995   5.469  0.0861  0.0240  0.0370
    1DPPC   C3A 2347   7.527   5.044   5.281 -0.1678 -0.0496 -0.0673
    1DPPC   C4A 2348   7.298   4.840   4.994 -0.1736 -0.0981  0.2352
    1DPPC   C1B 2349   8.599   5.174   5.848  0.0354 -0.0987  0.1591
    1DPPC   C2B 2350   8.364   5.110   5.529  0.2516 -0.2896 -0.0022
    1DPPC   C3B 2351   8.166   5.145   5.063  0.1677  0.1389  0.0506
    1DPPC   C4B 2352   7.893   5.047   4.809 -0.1118  0.1280  0.1900
    1DPPC   NC3 2353   7.297  10.418   7.298 -0.0702 -0.3579  0.1979
    1DPPC   PO4 2354   7.180  10.522   6.846 -0.3470 -0.0662  0.2243
    1DPPC   GL1 2355   7.239  10.617   6.413 -0.0305  0.0123 -0.1264
    1DPPC   GL2 2356   7.505  10.398   6.417  0.0344  0.0075 -0.3885
    1DPPC   C1A 2357   7.160  10.554   6.050  0.2306  0.3571 -0.1068
    1DPPC   C2A 2358   6.986  10.476   5.673 -0.1012  0.2196 -0.1206
    1DPPC   C3A 2359   6.889  10.672   5.297  0.1438 -0.0512 -0.3384
    1DPPC   C4A 2360   6.620  10.825   4.964  0.1096 -0.1607  0.1692
    1DPPC   C1B 2361   7.490  10.082   6.085 -0.0264 -0.0564 -0.2026
    1DPPC   C2B 2362   7.614   9.655   5.921 -0.0582  0.4649  0.2516
    1DPPC   C3B 2363   7.599   9.293   5.630  0.0747  0.1239  0.1061
    1DPPC   C4B 2364   7.805   9.035   5.274  0.3494 -0.0959 -0.1635
    1DPPC   NC3 2365  19.028  16.497   6.208 -0.2151  0.2271  0.0153
    1DPPC   PO4 2366  19.398  16.393   6.398  0.2633  0.0484 -0.2302
    1DPPC   GL1 2367  19.392  16.207   5.911  0.1578  0.0410 -0.3128
    1DPPC   GL2 2368  19.435  16.504   5.726  0.5535 -0.1691  0.4095
    1DPPC   C1A 2369  19.261  16.095   5.453 -0.0692 -0.2771  0.1263
    1DPPC   C2A 2370  19.275  15.970   4.989 -0.0525 -0.3673 -0.0985
    1DPPC   C3A 2371  19.508  15.906   4.665 -0.2558  0.1835  0.0665
    1DPPC   C4A 2372  19.650  16.308   4.523  0.2102  0.2056 -0.1211
    1DPPC   C1B 2373  19.379  16.888   5.388  0.0888 -0.1238  0.1062
    1DPPC   C2B 2374  19.367  16.851   4.922  0.0450  0.1458 -0.0984
    1DPPC   C3B 2375  19.220  16.700   4.500 -0.1633  0.2488 -0.4597
    1DPPC   C4B 2376  18.911  16.801   4.135 -0.0749  0.1403  0.0030
    1DPPC   NC3 2377  24.573   7.518   7.480  0.1770 -0.0420 -0.0502
    1DPPC   PO4 2378  24.319   7.837   7.518 -0.2441 -0.2788  0.0475
    1DPPC   GL1 2379  24.321   7.832   7.061  0.0304 -0.1247 -0.1316
    1DPPC   GL2 2380  24.601   7.880   6.986 -0.1437  0.2797  0.2381
    1DPPC   C1A 2381  24.224   7.804   6.585  0.2267  0.1567 -0.0480
    1DPPC   C2A 2382  24.044   7.847   6.174  0.1313 -0.1986  0.0196
    1DPPC   C3A 2383  23.995   7.563   5.810  0.1343 -0.2886  0.4086
    1DPPC   C4A 2384  24.096   7.180   5.672  0.1198  0.0299  0.0814
    1DPPC   C1B 2385  24.718   7.796   6.519  0.1501 -0.1158  0.2236
    1DPPC   C2B 2386  24.900   7.586   6.323 -0.2099  0.0552  0.1238
    1DPPC   C3B 2387  24.986   7.322   6.036  0.3674  0.0157  0.1892
    1DPPC   C4B 2388  25.039   6.882   5.821 -0.0667  0.0231 -0.1369
    1DPPC   NC3 2389  26.247   7.565   7.386 -0.0263 -0.1985 -0.0621
    1DPPC   PO4 2390  25.946   7.911   7.193 -0.1157  0.0348  0.1303
    1DPPC   GL1 2391  25.918   7.984   6.749 -0.0952 -0.1000  0.0061
    1DPPC   GL2 2392  26.175   7.883   6.639 -0.1422  0.0407 -0.1747
    1DPPC   C1A 2393  25.615   7.937   6.479 -0.0738  0.2656 -0.1954
    1DPPC   C2A 2394  25.431   7.936   6.091 -0.1242 -0.0120  0.1213
    1DPPC   C3A 2395  25.254   7.672   5.758  0.2819  0.1214 -0.1045
    1DPPC   C4A 2396  24.965   7.747   5.380  0.1035  0.2056  0.0342
    1DPPC   C1B 2397  25.974   8.237   6.352 -0.1619 -0.0106 -0.0124
    1DPPC   C2B 2398  25.793   8.244   5.992  0.0798 -0.0953  0.1073
    1DPPC   C3B 2399  25.887   8.091   5.549 -0.0482 -0.2411  0.2016
    1DPPC   C4B 2400  25.756   8.275   5.200  0.2840 -0.2354  0.2533
    1DPPC   NC3 2401  20.455  13.333   6.936  0.0075 -0.0519  0.0138
    1DPPC   PO4 2402  20.652  12.981   6.972  0.0280 -0.1767 -0.2977
    1DPPC   GL1 2403  20.565  12.871   6.618  0.2491 -0.2356 -0.1366
    1DPPC   GL2 2404  20.850  12.880   6.416  0.2323 -0.0559  0.2412
    1DPPC   C1A 2405  20.328  12.732   6.319  0.1422 -0.0750  0.0737
    1DPPC   C2A 2406  20.197  12.784   5.854 -0.1202  0.1722 -0.1274
    1DPPC   C3A 2407  20.061  12.970   5.335  0.0733  0.1885  0.0589
    1DPPC   C4A 2408  19.937  12.841   5.026 -0.2362 -0.0570  0.0570
    1DPPC   C1B 2409  20.728  12.917   5.918 -0.1058 -0.1121  0.1893
    1DPPC   C2B 2410  20.520  12.721   5.519 -0.0392 -0.0167  0.0225
    1DPPC   C3B 2411  20.554  12.770   5.080 -0.2451  0.1037 -0.1199
    1DPPC   C4B 2412  20.321  12.574   4.856 -0.2237 -0.1185  0.1164
    1DPPC   NC3 2413  11.595  20.620   5.918 -0.1279  0.2704 -0.0976
    1DPPC   PO4 2414  12.088  20.549   5.847  0.2378 -0.2469  0.0998
    1DPPC   GL1 2415  11.896  20.577   5.497  0.4734 -0.0256 -0.1323
    1DPPC   GL2 2416  11.989  20.880   5.283  0.2409 -0.1245  0.1752
    1DPPC   C1A 2417  11.776  20.405   5.140  0.2546 -0.3806 -0.1970
    1DPPC   C2A 2418  11.718  20.183   4.814  0.1721 -0.2293 -0.0455
    1DPPC   C3A 2419  11.617  20.061   4.398  0.1663 -0.1728  0.0575
    1DPPC   C4A 2420  11.827  20.318   3.999  0.2218  0.0826  0.1303
    1DPPC   C1B 2421  11.887  20.853   4.878  0.1910 -0.0780  0.1016
    1DPPC   C2B 2422  11.580  20.703   4.648  0.0825  0.2308 -0.1320
    1DPPC   C3B 2423  11.415  20.525   4.312  0.1426  0.0353 -0.0967
    1DPPC   C4B 2424  11.123  20.246   4.047  0.0718 -0.2121  0.0436
    1DPPC   NC3 2425  26.836  11.015   7.206  0.3956 -0.1080 -0.1597
    1DPPC   PO4 2426  26.791  10.856   6.788 -0.0113  0.0379 -0.1379
    1DPPC   GL1 2427  26.749  10.968   6.455  0.0284 -0.2714 -0.1946
    1DPPC   GL2 2428  27.042  11.012   6.320 -0.0265  0.0267  0.0852
    1DPPC   C1A 2429  26.541  11.082   6.044  0.1785  0.0588 -0.3136
    1DPPC   C2A 2430  26.589  11.041   5.560  0.0981 -0.1542  0.1609
    1DPPC   C3A 2431  26.578  10.893   5.150 -0.0483 -0.0146  0.0360
    1DPPC   C4A 2432  26.570  11.213   4.781  0.2358 -0.1468  0.0314
    1DPPC   C1B 2433  26.996  10.886   5.899  0.3058  0.0151  0.1153
    1DPPC   C2B 2434  27.000  10.818   5.564 -0.1030  0.2130 -0.2224
    1DPPC   C3B 2435  27.093  10.807   5.120 -0.0913 -0.1516  0.3039
    1DPPC   C4B 2436  27.397  11.006   4.820 -0.0472  0.1302  0.0920
    1DPPC   NC3 2437  14.332  13.336   7.040  0.0177 -0.3081 -0.1649
    1DPPC   PO4 2438  14.531  12.887   6.874  0.1408  0.0896  0.0734
    1DPPC   GL1 2439  14.526  12.797   6.397 -0.0260  0.2459  0.3619
    1DPPC   GL2 2440  14.149  12.933   6.221 -0.0212  0.0240  0.1069
    1DPPC   C1A 2441  14.529  12.810   5.880 -0.0722 -0.3060 -0.0088
    1DPPC   C2A 2442  14.631  12.608   5.481 -0.1621  0.0037  0.0210
    1DPPC   C3A 2443  14.583  12.438   5.075 -0.0992  0.1795 -0.4069
    1DPPC   C4A 2444  14.776  12.489   4.669 -0.0793 -0.2621 -0.1141
    1DPPC   C1B 2445  14.030  12.734   5.782  0.1195 -0.0097  0.2382
    1DPPC   C2B 2446  14.143  12.553   5.392  0.0990 -0.0971 -0.0608
    1DPPC   C3B 2447  14.042  12.454   4.930  0.2805  0.0077 -0.0751
    1DPPC   C4B 2448  13.864  12.097   4.677 -0.1310  0.0220 -0.1435
    1DPPC   NC3 2449  15.519  10.425   7.579 -0.1109 -0.2480  0.1134
    1DPPC   PO4 2450  15.550  10.162   7.206  0.1424  0.0743  0.0928
    1DPPC   GL1 2451  15.598   9.849   6.954 -0.3729 -0.2406  0.0913
    1DPPC   GL2 2452  15.338   9.737   6.889 -0.2619  0.1828  0.1248
    1DPPC   C1A 2453  15.745   9.743   6.540  0.1155  0.2208 -0.1797
    1DPPC   C2A 2454  15.719   9.671   6.106 -0.1810 -0.0251  0.2943
    1DPPC   C3A 2455  15.766   9.521   5.644 -0.0407 -0.0934 -0.2304
    1DPPC   C4A 2456  15.930   9.504   5.323 -0.3183 -0.1208 -0.1068
    1DPPC   C1B 2457  15.284   9.809   6.456  0.0817  0.1989 -0.0622
    1DPPC   C2B 2458  15.260   9.792   5.943  0.2011 -0.0856 -0.1018
    1DPPC   C3B 2459  15.193   9.680   5.460 -0.1108 -0.0664 -0.3323
    1DPPC   C4B 2460  15.245   9.880   5.083 -0.4738 -0.1855 -0.3692
    1DPPC   NC3 2461  24.755  12.307   7.088 -0.0657  0.1550 -0.1360
    1DPPC   PO4 2462  24.488  12.603   6.954 -0.0231 -0.0670  0.0115
    1DPPC   GL1 2463  24.542  12.282   6.595  0.2577 -0.0026  0.0368
    1DPPC   GL2 2464  24.814  12.009   6.581 -0.1535  0.2519 -0.1170
    1DPPC   C1A 2465  24.655  12.261   6.203 -0.0960 -0.2150 -0.2629
    1DPPC   C2A 2466  24.589  12.179   5.835  0.1019  0.2824  0.1220
    1DPPC   C3A 2467  24.668  12.128   5.430 -0.0552  0.1012 -0.0448
    1DPPC   C4A 2468  24.652  12.405   5.113 -0.0617 -0.0022 -0.3242
    1DPPC   C1B 2469  24.914  11.830   6.237  0.1274 -0.0913  0.0400
    1DPPC   C2B 2470  25.036  11.886   5.798  0.3140 -0.1234  0.1598
    1DPPC   C3B 2471  25.169  11.974   5.375 -0.1094 -0.0018  0.0988
    1DPPC   C4B 2472  25.245  11.850   4.939  0.0458 -0.1836 -0.1728
    1DPPC   NC3 2473  13.884  13.642   6.660 -0.2411 -0.1487  0.0200
    1DPPC   PO4 2474  13.563  13.854   6.630  0.0558  0.1451  0.0250
    1DPPC   GL1 2475  13.580  13.829   6.206  0.0601  0.1242 -0.0970
    1DPPC   GL2 2476  13.365  13.942   6.067 -0.0814  0.0915  0.1000
    1DPPC   C1A 2477  13.727  13.662   5.853  0.1942  0.1105  0.1886
    1DPPC   C2A 2478  13.760  13.518   5.444  0.0877  0.1319  0.1786
    1DPPC   C3A 2479  13.755  13.319   5.107 -0.1644 -0.0001  0.3012
    1DPPC   C4A 2480  13.502  13.319   4.742  0.0627 -0.0303 -0.1457
    1DPPC   C1B 2481  13.031  13.764   5.730  0.2639  0.2525 -0.2286
    1DPPC   C2B 2482  12.836  13.597   5.358  0.0392 -0.1968  0.0774
    1DPPC   C3B 2483  12.761  13.660   4.922 -0.0892 -0.1540  0.1208
    1DPPC   C4B 2484  12.770  13.637   4.455 -0.0643  0.1242 -0.0684
    1DPPC   NC3 2485   2.779  23.673   6.176 -0.0880 -0.0030  0.1984
    1DPPC   PO4 2486   2.756  23.192   6.071  0.1206 -0.3253 -0.1658
    1DPPC   GL1 2487   2.885  23.246   5.630 -0.1789  0.1658 -0.2539
    1DPPC   GL2 2488   2.707  23.574   5.564 -0.0582  0.1011  0.0701
    1DPPC   C1A 2489   3.075  23.076   5.267 -0.3076 -0.2181  0.0868
    1DPPC   C2A 2490   3.282  22.980   4.952  0.0239 -0.0588  0.0999
    1DPPC   C3A 2491   3.102  22.739   4.532  0.3098 -0.1308  0.0811
    1DPPC   C4A 2492   3.265  22.473   4.192  0.0440 -0.0134 -0.1324
    1DPPC   C1B 2493   2.692  23.508   5.133 -0.2086  0.2564 -0.2955
    1DPPC   C2B 2494   2.750  23.317   4.785  0.1991  0.0274 -0.2086
    1DPPC   C3B 2495   2.465  23.565   4.336  0.0129  0.1185 -0.2714
    1DPPC   C4B 2496   2.222  23.789   4.173 -0.0504  0.2622 -0.1765
    1DPPC   NC3 2497  29.019   7.052   6.917 -0.1355  0.1152  0.2609
    1DPPC   PO4 2498  29.381   7.408   6.807 -0.3260 -0.2800  0.1465
    1DPPC   GL1 2499  29.699   7.396   6.434 -0.0527  0.0769 -0.0628
    1DPPC   GL2 2500   0.168   7.276   6.533  0.1420 -0.0925 -0.2340
    1DPPC   C1A 2501  29.822   7.130   6.059 -0.3288 -0.1462 -0.2580
    1DPPC   C2A 2502  29.695   7.435   5.737  0.0242  0.0307 -0.1088
    1DPPC   C3A 2503   0.004   7.338   5.277 -0.1677  0.1711 -0.2425
    1DPPC   C4A 2504  29.752   6.996   4.979  0.0859 -0.0665  0.1381
    1DPPC   C1B 2505   0.147   6.843   6.400 -0.1340 -0.3740  0.0154
    1DPPC   C2B 2506   0.229   6.370   6.360 -0.0709 -0.2339  0.1502
    1DPPC   C3B 2507   0.273   5.950   6.251  0.0652  0.0084  0.1714
    1DPPC   C4B 2508  29.767   5.643   6.307 -0.1181 -0.0555 -0.0559
    1DPPC   NC3 2509  28.064  12.715   6.664  0.0054 -0.0778  0.0202
    1DPPC   PO4 2510  28.108  13.167   6.468 -0.0319 -0.2054  0.1908
    1DPPC   GL1 2511  27.878  13.402   6.367  0.1567  0.1236 -0.0222
    1DPPC   GL2 2512  28.051  13.668   6.372  0.3755  0.1064  0.2152
    1DPPC   C1A 2513  27.544  13.585   5.994  0.0880  0.0636 -0.3034
    1DPPC   C2A 2514  27.360  13.784   5.605  0.4034  0.1521  0.1629
    1DPPC   C3A 2515  27.604  14.049   5.281  0.0868  0.0745 -0.0499
    1DPPC   C4A 2516  27.962  13.994   5.001  0.1513  0.0911 -0.1150
    1DPPC   C1B 2517  28.017  13.745   5.844  0.0599 -0.1043 -0.0380
    1DPPC   C2B 2518  28.233  14.058   5.519  0.0587  0.0586  0.0591
    1DPPC   C3B 2519  28.521  14.394   5.282  0.0240  0.1381 -0.0947
    1DPPC   C4B 2520  28.588  14.526   4.807 -0.0819  0.0657  0.1239
    1DPPC   NC3 2521  20.385  28.702   7.176  0.0314  0.0551 -0.0175
    1DPPC   PO4 2522  19.973  28.772   6.888  0.0453 -0.2953  0.1773
    1DPPC   GL1 2523  19.771  28.746   6.540  0.0478  0.1719  0.0781
    1DPPC   GL2 2524  20.122  28.707   6.400 -0.0696  0.1555 -0.0976
    1DPPC   C1A 2525  19.611  28.585   6.142 -0.3327  0.0774  0.1015
    1DPPC   C2A 2526  19.331  28.291   5.763 -0.0238 -0.2727 -0.2190
    1DPPC   C3A 2527  19.185  28.284   5.330 -0.0575  0.0294  0.2311
    1DPPC   C4A 2528  19.113  28.148   4.890 -0.0809  0.1149  0.1358
    1DPPC   C1B 2529  20.261  28.462   6.064 -0.0312  0.1059  0.3564
    1DPPC   C2B 2530  20.323  28.539   5.644  0.0545  0.2791  0.2518
    1DPPC   C3B 2531  20.194  28.859   5.492  0.1986 -0.1349  0.0871
    1DPPC   C4B 2532  20.253  29.227   5.376 -0.0161 -0.2000  0.0044
    1DPPC   NC3 2533  29.021   5.874   6.784  0.2510 -0.0800 -0.0652
    1DPPC   PO4 2534  29.506   5.922   6.852  0.0273  0.0248  0.2930
    1DPPC   GL1 2535  29.571   6.104   6.372  0.2055  0.0538 -0.3104
    1DPPC   GL2 2536  29.341   5.855   6.274 -0.0530  0.2973 -0.1035
    1DPPC   C1A 2537  29.426   6.251   5.995 -0.1614  0.0708 -0.0060
    1DPPC   C2A 2538  29.497   6.152   5.509 -0.2528  0.0863 -0.0262
    1DPPC   C3A 2539  29.604   5.949   5.180  0.1268 -0.0986 -0.1096
    1DPPC   C4A 2540  29.804   5.773   4.780 -0.0358  0.0224 -0.1783
    1DPPC   C1B 2541  29.151   5.842   5.882 -0.0649 -0.0348 -0.1248
    1DPPC   C2B 2542  29.043   6.089   5.613 -0.0568 -0.1902 -0.2313
    1DPPC   C3B 2543  28.674   6.304   5.288  0.0119  0.0850  0.2594
    1DPPC   C4B 2544  28.554   6.529   4.944 -0.3360 -0.2041  0.2169
    1DPPC   NC3 2545  22.470  14.284   6.915  0.2383  0.3631  0.2310
    1DPPC   PO4 2546  22.315  14.654   7.069 -0.0318  0.0080 -0.1318
    1DPPC   GL1 2547  22.255  14.585   6.556 -0.2750  0.0751 -0.4525
    1DPPC   GL2 2548  21.993  14.683   6.534  0.0999 -0.2805  0.0267
    1DPPC   C1A 2549  22.483  14.426   6.181 -0.1861  0.1846 -0.1580
    1DPPC   C2A 2550  22.699  14.266   5.729 -0.1289 -0.0571  0.2484
    1DPPC   C3A 2551  22.777  14.067   5.384 -0.0309  0.0203  0.1762
    1DPPC   C4A 2552  22.642  14.182   5.010  0.0137 -0.3314  0.0200
    1DPPC   C1B 2553  22.092  14.758   6.050 -0.1843 -0.1074  0.1735
    1DPPC   C2B 2554  21.944  14.773   5.594  0.0018 -0.0191  0.1294
    1DPPC   C3B 2555  22.058  14.675   5.161 -0.0585 -0.0617 -0.1317
    1DPPC   C4B 2556  22.506  14.657   4.830  0.0867  0.2739 -0.0002
    1DPPC   NC3 2557  25.753   9.815   7.078 -0.0613  0.1612  0.2165
    1DPPC   PO4 2558  25.313   9.594   7.219  0.0431  0.0567  0.1885
    1DPPC   GL1 2559  25.064   9.608   6.791  0.2922 -0.2500  0.1401
    1DPPC   GL2 2560  24.754   9.728   6.712 -0.0839 -0.0326 -0.0033
    1DPPC   C1A 2561  25.334   9.619   6.410 -0.2944 -0.1314  0.0583
    1DPPC   C2A 2562  25.384   9.475   6.059 -0.0687  0.0653  0.0886
    1DPPC   C3A 2563  25.300   9.464   5.601 -0.0437 -0.1059 -0.2323
    1DPPC   C4A 2564  25.262   9.615   5.191 -0.0717 -0.0191  0.1685
    1DPPC   C1B 2565  24.876   9.497   6.373  0.2689  0.0607 -0.2684
    1DPPC   C2B 2566  24.807   9.478   5.987 -0.1577 -0.0091  0.0852
    1DPPC   C3B 2567  24.745   9.497   5.560  0.0781  0.0102  0.0092
    1DPPC   C4B 2568  24.834   9.199   5.296 -0.2901 -0.1883  0.4712
    1DPPC   NC3 2569  18.432  22.542   5.875 -0.1989 -0.0559  0.0492
    1DPPC   PO4 2570  18.073  22.733   6.013 -0.0359  0.0044 -0.0428
    1DPPC   GL1 2571  18.038  22.872   5.468 -0.0598  0.4013  0.2744
    1DPPC   GL2 2572  17.838  22.713   5.241 -0.2005 -0.2726  0.0504
    1DPPC   C1A 2573  18.227  22.944   5.057 -0.0752 -0.0971 -0.0760
    1DPPC   C2A 2574  18.342  22.942   4.634 -0.0660  0.0449 -0.1996
    1DPPC   C3A 2575  18.589  22.811   4.243 -0.6066 -0.0496 -0.1567
    1DPPC   C4A 2576  18.933  23.032   3.978  0.0010  0.1536 -0.0836
    1DPPC   C1B 2577  17.841  22.729   4.741 -0.0974 -0.1871  0.0007
    1DPPC   C2B 2578  18.032  22.589   4.305  0.2489  0.0376 -0.2971
    1DPPC   C3B 2579  18.063  22.656   3.846 -0.0230  0.2103 -0.0661
    1DPPC   C4B 2580  17.962  22.718   3.386  0.1077  0.0387 -0.2955
    1DPPC   NC3 2581  17.556   8.281   8.455  0.3053  0.2036  0.2430
    1DPPC   PO4 2582  17.535   8.188   7.927 -0.0153  0.1205 -0.1892
    1DPPC   GL1 2583  17.433   8.176   7.545  0.0766  0.0112  0.0112
    1DPPC   GL2 2584  17.671   8.124   7.443  0.0215 -0.1958 -0.0853
    1DPPC   C1A 2585  17.263   8.121   7.075 -0.2317  0.1126  0.1591
    1DPPC   C2A 2586  17.387   7.940   6.713  0.1639  0.0034  0.1038
    1DPPC   C3A 2587  17.381   8.014   6.322  0.2239 -0.1577  0.5572
    1DPPC   C4A 2588  17.274   7.795   5.915 -0.1111  0.2277  0.3721
    1DPPC   C1B 2589  17.785   8.232   6.967 -0.2706  0.0618  0.0741
    1DPPC   C2B 2590  17.748   8.269   6.511 -0.2376 -0.0490 -0.0187
    1DPPC   C3B 2591  17.704   8.246   6.063 -0.1709 -0.0475  0.2708
    1DPPC   C4B 2592  17.843   8.288   5.630  0.2257 -0.1960 -0.0508
    1DPPC   NC3 2593  12.514  10.564   6.985  0.1966 -0.0697 -0.2402
    1DPPC   PO4 2594  12.207  10.482   6.671 -0.4722 -0.3113  0.2913
    1DPPC   GL1 2595  12.251  10.418   6.288  0.1646 -0.2969 -0.1424
    1DPPC   GL2 2596  11.970  10.300   6.136  0.0280 -0.1371  0.1544
    1DPPC   C1A 2597  12.456  10.275   6.008  0.2293  0.1933  0.1525
    1DPPC   C2A 2598  12.570  10.189   5.558  0.0040  0.3290  0.0491
    1DPPC   C3A 2599  12.792  10.060   5.274 -0.0345 -0.2417  0.2116
    1DPPC   C4A 2600  12.978   9.829   5.144  0.1168  0.0015 -0.1510
    1DPPC   C1B 2601  12.122  10.555   5.780  0.0502  0.1449  0.2454
    1DPPC   C2B 2602  12.506  10.694   5.597  0.2946 -0.0985 -0.1467
    1DPPC   C3B 2603  12.832  10.636   5.333  0.0930  0.3728  0.1164
    1DPPC   C4B 2604  13.129  10.469   4.990  0.0532  0.1692 -0.2177
    1DPPC   NC3 2605  24.399   9.872   7.132  0.1463  0.1275 -0.1439
    1DPPC   PO4 2606  24.278   9.488   7.440 -0.6276  0.0922  0.2114
    1DPPC   GL1 2607  24.285   9.383   6.937 -0.2415  0.1043 -0.4020
    1DPPC   GL2 2608  24.610   9.179   6.897  0.0105 -0.0116 -0.0844
    1DPPC   C1A 2609  24.161   9.301   6.528  0.0473  0.1616  0.0155
    1DPPC   C2A 2610  24.282   9.396   6.122  0.2588 -0.1521 -0.0429
    1DPPC   C3A 2611  24.318   9.355   5.665 -0.0453  0.2379 -0.2083
    1DPPC   C4A 2612  24.217   9.407   5.358 -0.2062 -0.0996  0.1041
    1DPPC   C1B 2613  24.631   9.070   6.424 -0.0503 -0.0745  0.1404
    1DPPC   C2B 2614  24.509   9.026   5.993 -0.3234 -0.0911  0.1378
    1DPPC   C3B 2615  24.583   8.921   5.589 -0.0351  0.1102  0.1500
    1DPPC   C4B 2616  24.696   8.596   5.195  0.0371 -0.1354  0.2386
    1DPPC   NC3 2617  19.410  15.218   6.215 -0.0001 -0.0826 -0.2343
    1DPPC   PO4 2618  18.939  15.393   6.262 -0.2547  0.0704  0.0952
    1DPPC   GL1 2619  19.091  15.391   5.837  0.4476 -0.2016  0.0953
    1DPPC   GL2 2620  19.241  15.106   5.781 -0.0345 -0.0945 -0.0193
    1DPPC   C1A 2621  19.275  15.552   5.413 -0.2636 -0.1014 -0.1354
    1DPPC   C2A 2622  19.263  15.504   4.937 -0.1107 -0.1501 -0.0039
    1DPPC   C3A 2623  19.029  15.269   4.585  0.1659  0.1189  0.2020
    1DPPC   C4A 2624  18.727  15.005   4.441  0.3005  0.0481  0.1342
    1DPPC   C1B 2625  19.473  14.965   5.385  0.1805  0.1259 -0.1511
    1DPPC   C2B 2626  19.664  15.053   4.983  0.2049  0.2003 -0.1400
    1DPPC   C3B 2627  20.004  15.040   4.668 -0.1564  0.2243 -0.1731
    1DPPC   C4B 2628  20.120  15.059   4.247 -0.0803  0.0838 -0.1788
    1DPPC   NC3 2629  21.589  14.569   6.802  0.1183 -0.0414  0.1659
    1DPPC   PO4 2630  21.142  14.525   6.893  0.0522 -0.0326  0.0275
    1DPPC   GL1 2631  21.247  14.180   6.468  0.0399 -0.0358 -0.0490
    1DPPC   GL2 2632  21.023  14.089   6.326 -0.1170 -0.0753  0.1675
    1DPPC   C1A 2633  21.499  14.175   6.149 -0.0727 -0.1397  0.3668
    1DPPC   C2A 2634  21.596  14.032   5.737  0.1723 -0.0916  0.3388
    1DPPC   C3A 2635  21.740  13.829   5.373  0.0135 -0.0129  0.0919
    1DPPC   C4A 2636  21.759  13.798   4.976  0.1025  0.1840 -0.3376
    1DPPC   C1B 2637  21.019  13.904   6.013  0.0699 -0.1777  0.0800
    1DPPC   C2B 2638  21.128  13.852   5.565 -0.1914 -0.0492  0.1504
    1DPPC   C3B 2639  21.307  13.962   5.150  0.0699  0.0621  0.3038
    1DPPC   C4B 2640  21.236  14.005   4.797  0.0256 -0.2812  0.2498
    1DPPC   NC3 2641  18.752  16.826   6.653  0.1596  0.1497 -0.2711
    1DPPC   PO4 2642  18.567  16.407   6.402 -0.1269 -0.1644  0.0522
    1DPPC   GL1 2643  18.639  16.075   6.195 -0.1912 -0.2256 -0.0048
    1DPPC   GL2 2644  18.901  15.959   6.100 -0.4097  0.0310 -0.0812
    1DPPC   C1A 2645  18.430  15.858   5.893  0.1299 -0.1617 -0.0879
    1DPPC   C2A 2646  18.414  15.606   5.459 -0.1232 -0.1056 -0.2587
    1DPPC   C3A 2647  18.378  15.276   5.193 -0.1466  0.1766 -0.1488
    1DPPC   C4A 2648  18.459  14.965   4.882 -0.1820 -0.0641  0.0765
    1DPPC   C1B 2649  18.911  15.803   5.683 -0.0015  0.2108 -0.1915
    1DPPC   C2B 2650  18.825  15.844   5.290 -0.0348  0.0959  0.0751
    1DPPC   C3B 2651  18.788  15.626   4.971  0.3332 -0.0580 -0.1104
    1DPPC   C4B 2652  18.540  15.420   4.729  0.1741 -0.2341  0.0521
    1DPPC   NC3 2653  20.631  19.592   6.078  0.3152 -0.1187 -0.0146
    1DPPC   PO4 2654  20.931  19.320   5.946 -0.1552 -0.0690  0.1497
    1DPPC   GL1 2655  21.140  19.190   5.614  0.3073 -0.1314  0.0106
    1DPPC   GL2 2656  21.193  18.902   5.554 -0.0948 -0.1195  0.0409
    1DPPC   C1A 2657  21.251  19.444   5.226  0.1334  0.1167 -0.4304
    1DPPC   C2A 2658  21.294  19.301   4.754  0.2646 -0.0092  0.1382
    1DPPC   C3A 2659  21.424  19.237   4.359 -0.2684 -0.1889 -0.2384
    1DPPC   C4A 2660  21.283  19.439   3.978  0.0915  0.0882  0.2287
    1DPPC   C1B 2661  21.192  18.894   5.063  0.1536 -0.2546 -0.1462
    1DPPC   C2B 2662  21.218  18.747   4.584 -0.2371  0.1463 -0.1321
    1DPPC   C3B 2663  21.433  18.710   4.192  0.0305 -0.1643  0.1588
    1DPPC   C4B 2664  21.653  18.956   3.970 -0.1881 -0.1972  0.0030
    1DPPC   NC3 2665  15.349  13.611   6.653  0.2050  0.2324 -0.1178
    1DPPC   PO4 2666  14.937  13.758   6.673  0.1903 -0.2147 -0.1315
    1DPPC   GL1 2667  15.035  13.315   6.404 -0.2709  0.1892  0.3630
    1DPPC   GL2 2668  15.364  13.103   6.490  0.1938 -0.0216 -0.1610
    1DPPC   C1A 2669  14.990  12.919   6.144 -0.0643  0.0441  0.0153
    1DPPC   C2A 2670  14.985  12.895   5.684  0.1442  0.0201  0.0353
    1DPPC   C3A 2671  14.902  12.934   5.306 -0.2164  0.0629 -0.0940
    1DPPC   C4A 2672  14.917  12.958   4.887 -0.1103  0.0284  0.0851
    1DPPC   C1B 2673  15.453  13.168   6.000  0.2037 -0.0758  0.2241
    1DPPC   C2B 2674  15.422  13.134   5.521 -0.3695 -0.1660 -0.1753
    1DPPC   C3B 2675  15.394  12.947   5.114  0.1397 -0.3396 -0.2884
    1DPPC   C4B 2676  15.322  13.118   4.659  0.1500  0.1838  0.3072
    1DPPC   NC3 2677   5.937   3.185   7.419 -0.0310  0.0212 -0.0518
    1DPPC   PO4 2678   6.008   3.537   7.162 -0.1388 -0.0231  0.2773
    1DPPC   GL1 2679   5.840   3.503   6.758  0.3116 -0.1874  0.1643
    1DPPC   GL2 2680   5.546   3.523   6.605  0.1984  0.1541 -0.2304
    1DPPC   C1A 2681   5.959   3.807   6.361  0.0449 -0.2880  0.0260
    1DPPC   C2A 2682   5.960   4.062   6.077  0.1125  0.0235  0.1160
    1DPPC   C3A 2683   6.210   4.303   5.803  0.0473 -0.1258  0.1880
    1DPPC   C4A 2684   6.127   4.695   5.614 -0.1165 -0.0548  0.1008
    1DPPC   C1B 2685   5.602   3.361   6.211 -0.2115  0.1550  0.1021
    1DPPC   C2B 2686   5.832   3.225   5.773 -0.0085  0.0266 -0.1240
    1DPPC   C3B 2687   6.248   3.251   5.528 -0.0252  0.0939 -0.1527
    1DPPC   C4B 2688   6.384   3.306   5.100  0.1140  0.1660 -0.1721
    1DPPC   NC3 2689  18.191  11.794   7.103  0.3680  0.1638  0.3207
    1DPPC   PO4 2690  18.575  11.512   7.086  0.3073 -0.0177  0.0909
    1DPPC   GL1 2691  18.490  11.646   6.715  0.2139  0.3408 -0.0337
    1DPPC   GL2 2692  18.171  11.766   6.622  0.0730  0.0648 -0.1431
    1DPPC   C1A 2693  18.471  11.473   6.331 -0.1692  0.2172 -0.2412
    1DPPC   C2A 2694  18.311  11.492   5.991  0.0220 -0.0055 -0.1967
    1DPPC   C3A 2695  18.111  11.423   5.577 -0.0780  0.0652  0.0369
    1DPPC   C4A 2696  18.015  11.214   5.185 -0.0203  0.0419 -0.2545
    1DPPC   C1B 2697  18.000  11.838   6.257 -0.3497  0.0172  0.0111
    1DPPC   C2B 2698  17.984  11.832   5.786 -0.2086  0.0234  0.0809
    1DPPC   C3B 2699  17.923  11.817   5.299 -0.0230  0.0249 -0.0240
    1DPPC   C4B 2700  17.709  12.136   5.052 -0.0670  0.0958  0.4195
    1DPPC   NC3 2701  13.948  14.591   6.424 -0.0456  0.2041 -0.0402
    1DPPC   PO4 2702  14.262  14.897   6.308  0.0847  0.2862  0.2071
    1DPPC   GL1 2703  14.371  14.546   6.064 -0.0898 -0.2769 -0.4852
    1DPPC   GL2 2704  14.783  14.554   6.040  0.1214 -0.0108  0.1401
    1DPPC   C1A 2705  14.387  14.237   5.887 -0.1210  0.0455  0.1677
    1DPPC   C2A 2706  14.519  14.035   5.591  0.2725  0.0195 -0.3337
    1DPPC   C3A 2707  14.618  13.981   5.237 -0.0461 -0.0434 -0.0218
    1DPPC   C4A 2708  14.717  13.835   4.837 -0.0774 -0.1724 -0.0109
    1DPPC   C1B 2709  14.816  14.472   5.676 -0.1100  0.0371 -0.4007
    1DPPC   C2B 2710  14.942  14.480   5.301  0.1725  0.1975 -0.0040
    1DPPC   C3B 2711  15.195  14.338   5.035  0.1477  0.1315  0.2819
    1DPPC   C4B 2712  15.262  13.916   4.651 -0.3241  0.1910 -0.0261
    1DPPC   NC3 2713  19.825  16.308   6.653  0.0310  0.1463  0.0911
    1DPPC   PO4 2714  19.939  16.653   6.358  0.2026 -0.2447 -0.1977
    1DPPC   GL1 2715  19.917  16.596   5.878 -0.0075  0.2235  0.3795
    1DPPC   GL2 2716  19.870  16.842   5.663  0.2630 -0.1856  0.3108
    1DPPC   C1A 2717  19.901  16.302   5.576  0.2094 -0.0625 -0.0035
    1DPPC   C2A 2718  19.689  15.989   5.356  0.0921 -0.2700 -0.2745
    1DPPC   C3A 2719  19.734  15.677   5.050  0.0914 -0.1208 -0.0858
    1DPPC   C4A 2720  19.769  15.519   4.557 -0.1008  0.1556 -0.0036
    1DPPC   C1B 2721  19.849  16.744   5.198 -0.1959 -0.1683  0.0974
    1DPPC   C2B 2722  19.930  16.700   4.794 -0.0515  0.1181 -0.0666
    1DPPC   C3B 2723  19.801  16.769   4.402 -0.0988  0.0530 -0.0970
    1DPPC   C4B 2724  19.915  17.053   4.082  0.1130 -0.0604 -0.0827
    1DPPC   NC3 2725  21.888  17.553   6.005  0.2610  0.1665 -0.0302
    1DPPC   PO4 2726  22.390  17.608   5.907 -0.1824 -0.1912  0.1402
    1DPPC   GL1 2727  22.246  17.490   5.562  0.0564  0.1219  0.0503
    1DPPC   GL2 2728  22.340  17.165   5.566  0.2358  0.1122  0.1053
    1DPPC   C1A 2729  22.156  17.534   5.251  0.0926  0.0011  0.1148
    1DPPC   C2A 2730  22.139  17.572   4.857  0.0664  0.0829 -0.3167
    1DPPC   C3A 2731  22.440  17.512   4.380  0.3986 -0.2018 -0.0359
    1DPPC   C4A 2732  22.344  17.383   3.958  0.0531  0.1867 -0.0279
    1DPPC   C1B 2733  22.464  17.120   5.162  0.0056  0.0792  0.0309
    1DPPC   C2B 2734  22.541  17.272   4.828 -0.2391  0.0519  0.0944
    1DPPC   C3B 2735  22.822  17.189   4.417 -0.1790  0.0131  0.1843
    1DPPC   C4B 2736  22.709  16.950   4.073  0.2729  0.0767 -0.1609
    1DPPC   NC3 2737  12.464  12.821   6.814  0.2017 -0.0908 -0.1981
    1DPPC   PO4 2738  12.848  12.727   6.644 -0.1789  0.3186 -0.0153
    1DPPC   GL1 2739  12.803  12.627   6.187 -0.0288  0.2148  0.3699
    1DPPC   GL2 2740  13.027  12.264   6.121  0.3698 -0.0490 -0.0999
    1DPPC   C1A 2741  12.990  12.826   5.791 -0.0131  0.2264  0.1746
    1DPPC   C2A 2742  12.991  12.541   5.436 -0.4041  0.2854 -0.0229
    1DPPC   C3A 2743  12.722  12.579   5.071 -0.1137  0.0672  0.0213
    1DPPC   C4A 2744  12.516  12.342   4.749 -0.0857  0.0816  0.1436
    1DPPC   C1B 2745  12.836  12.133   5.760  0.2772  0.0741 -0.0136
    1DPPC   C2B 2746  12.659  12.132   5.343  0.0210 -0.0479  0.1722
    1DPPC   C3B 2747  12.276  12.068   5.180  0.0460  0.2672  0.1416
    1DPPC   C4B 2748  11.914  12.000   4.928  0.0000 -0.3652 -0.1971
    1DPPC   NC3 2749  23.920  13.343   7.105 -0.1176  0.0655 -0.0871
    1DPPC   PO4 2750  23.545  13.451   6.887 -0.2524  0.1168 -0.1108
    1DPPC   GL1 2751  23.422  13.437   6.482  0.0414 -0.1355 -0.2662
    1DPPC   GL2 2752  23.574  13.077   6.503 -0.2443  0.1324 -0.0395
    1DPPC   C1A 2753  23.460  13.438   6.089 -0.0089  0.1121 -0.2345
    1DPPC   C2A 2754  23.509  13.509   5.699 -0.1862  0.2041 -0.0177
    1DPPC   C3A 2755  23.582  13.371   5.386  0.0363  0.0187 -0.2673
    1DPPC   C4A 2756  23.675  13.487   5.011  0.0489  0.4431 -0.0135
    1DPPC   C1B 2757  23.844  13.042   6.168  0.0395 -0.1231 -0.0423
    1DPPC   C2B 2758  23.876  13.020   5.705 -0.2826  0.0036 -0.0417
    1DPPC   C3B 2759  23.879  12.928   5.305 -0.2305 -0.0483  0.0683
    1DPPC   C4B 2760  23.878  12.976   4.879 -0.1564  0.0022 -0.1702
    1DPPC   NC3 2761  21.017  17.926   5.921 -0.1920  0.1072  0.1879
    1DPPC   PO4 2762  20.817  17.536   5.938  0.0418 -0.0367  0.2481
    1DPPC   GL1 2763  21.082  17.473   5.609  0.0889  0.0067  0.4961
    1DPPC   GL2 2764  21.209  17.739   5.499  0.1847  0.0367 -0.0017
    1DPPC   C1A 2765  21.093  17.329   5.162 -0.1985  0.2544  0.0602
    1DPPC   C2A 2766  21.089  17.279   4.686 -0.4352 -0.1678  0.2763
    1DPPC   C3A 2767  21.215  17.196   4.356 -0.0478  0.1171  0.2938
    1DPPC   C4A 2768  21.362  17.183   4.003 -0.3195  0.0884  0.1948
    1DPPC   C1B 2769  21.401  18.030   5.198 -0.0565 -0.2238  0.1584
    1DPPC   C2B 2770  21.459  17.957   4.705 -0.2237  0.2938  0.0140
    1DPPC   C3B 2771  21.577  17.706   4.360  0.0037 -0.2058 -0.0785
    1DPPC   C4B 2772  21.941  17.490   4.269  0.0287  0.1908 -0.1801
    1DPPC   NC3 2773  10.367  17.876   5.981 -0.1538 -0.0281 -0.0679
    1DPPC   PO4 2774  10.102  17.544   6.141  0.2206  0.0731 -0.1293
    1DPPC   GL1 2775  10.061  17.618   5.622  0.1607  0.0306 -0.1099
    1DPPC   GL2 2776  10.223  17.630   5.496 -0.4811 -0.0438  0.1807
    1DPPC   C1A 2777   9.921  17.965   5.244 -0.2807  0.2146 -0.0100
    1DPPC   C2A 2778   9.925  17.984   4.838 -0.1583 -0.2858  0.1765
    1DPPC   C3A 2779  10.200  17.860   4.587  0.0694 -0.1255 -0.0689
    1DPPC   C4A 2780  10.503  17.876   4.328 -0.3011  0.0587  0.3198
    1DPPC   C1B 2781  10.326  17.490   5.017 -0.2520  0.4638 -0.0137
    1DPPC   C2B 2782  10.124  17.243   4.742  0.0368 -0.1056  0.2767
    1DPPC   C3B 2783   9.903  17.023   4.397  0.2593 -0.0358 -0.0819
    1DPPC   C4B 2784   9.748  16.666   4.203  0.1402  0.1790 -0.0946
    1DPPC   NC3 2785  19.709  10.643   8.020  0.2954  0.0686  0.0732
    1DPPC   PO4 2786  19.597  10.400   7.593 -0.1790  0.0761 -0.0667
    1DPPC   GL1 2787  19.695  10.107   7.181  0.0308 -0.2468  0.0507
    1DPPC   GL2 2788  19.785   9.855   7.335  0.1337  0.3578 -0.1732
    1DPPC   C1A 2789  19.705   9.786   6.850 -0.0314 -0.1017 -0.3496
    1DPPC   C2A 2790  19.535   9.559   6.467 -0.1372 -0.0799  0.0870
    1DPPC   C3A 2791  19.459   9.609   6.019 -0.2170  0.1710 -0.1177
    1DPPC   C4A 2792  19.560   9.529   5.597  0.1318 -0.1399 -0.0717
    1DPPC   C1B 2793  19.899   9.538   7.216  0.4340  0.4206  0.3510
    1DPPC   C2B 2794  20.076   9.448   6.913 -0.1064 -0.4306 -0.2373
    1DPPC   C3B 2795  20.249   9.089   6.787  0.2856 -0.1127 -0.0118
    1DPPC   C4B 2796  20.613   8.876   6.616 -0.0976 -0.2097  0.2195
    1DPPC   NC3 2797  21.907  11.564   6.975 -0.1525  0.0306  0.2146
    1DPPC   PO4 2798  22.102  11.921   6.838  0.1629  0.0859  0.0246
    1DPPC   GL1 2799  22.142  11.765   6.464 -0.0539 -0.0649 -0.3556
    1DPPC   GL2 2800  22.448  11.786   6.273 -0.2656 -0.1034 -0.2310
    1DPPC   C1A 2801  21.935  11.800   6.062 -0.1424 -0.0678  0.3567
    1DPPC   C2A 2802  21.954  11.646   5.661 -0.5281  0.1063 -0.1934
    1DPPC   C3A 2803  22.087  11.547   5.299  0.2554  0.1290 -0.1784
    1DPPC   C4A 2804  22.409  11.341   5.061  0.2032  0.0456 -0.0355
    1DPPC   C1B 2805  22.453  11.806   5.893  0.0898 -0.0892  0.0232
    1DPPC   C2B 2806  22.626  11.817   5.448  0.0799  0.0224  0.1175
    1DPPC   C3B 2807  22.713  11.972   5.023 -0.0798  0.2320  0.2449
    1DPPC   C4B 2808  22.626  12.158   4.691  0.0190  0.0245 -0.0743
    1DPPC   NC3 2809   3.227  27.909   5.768  0.0478  0.3385  0.2237
    1DPPC   PO4 2810   3.144  27.503   5.584  0.2222  0.0870  0.1553
    1DPPC   GL1 2811   3.218  27.449   5.215  0.0503  0.2840  0.1910
    1DPPC   GL2 2812   3.193  27.094   5.207 -0.1839  0.0456 -0.0353
    1DPPC   C1A 2813   3.480  27.623   4.889 -0.0883 -0.0374  0.0682
    1DPPC   C2A 2814   3.566  27.602   4.397  0.1419 -0.1349  0.0516
    1DPPC   C3A 2815   3.462  27.398   4.051 -0.3494  0.4789 -0.0345
    1DPPC   C4A 2816   3.271  27.533   3.568  0.0981  0.2269  0.0058
    1DPPC   C1B 2817   3.441  27.116   4.813  0.1668  0.0281  0.0686
    1DPPC   C2B 2818   3.691  27.134   4.512  0.0116  0.0062 -0.0802
    1DPPC   C3B 2819   3.735  26.989   4.047  0.0826 -0.2171 -0.0238
    1DPPC   C4B 2820   4.150  27.040   3.800  0.0734  0.1321 -0.0406
    1DPPC   NC3 2821  25.236   8.131   7.869 -0.2569  0.2711  0.1823
    1DPPC   PO4 2822  25.114   7.998   7.469  0.2336  0.1913  0.0225
    1DPPC   GL1 2823  25.055   8.311   7.074  0.1109  0.0052 -0.0695
    1DPPC   GL2 2824  25.209   8.598   7.046  0.0546 -0.2599 -0.2184
    1DPPC   C1A 2825  25.049   8.147   6.657  0.0240 -0.0685 -0.0980
    1DPPC   C2A 2826  24.961   8.158   6.196  0.0390 -0.0844 -0.0734
    1DPPC   C3A 2827  25.052   8.140   5.775  0.2492  0.0206 -0.0734
    1DPPC   C4A 2828  25.435   7.979   5.430 -0.1600 -0.0383 -0.0067
    1DPPC   C1B 2829  24.908   8.648   6.696  0.2468 -0.0043  0.1458
    1DPPC   C2B 2830  24.772   8.616   6.184  0.3506  0.0935  0.0361
    1DPPC   C3B 2831  24.643   8.436   5.726  0.0047  0.0723 -0.0832
    1DPPC   C4B 2832  24.717   8.137   5.333  0.0213  0.1809 -0.1996
    1DPPC   NC3 2833  19.409   8.882   7.834 -0.2353  0.1803  0.2187
    1DPPC   PO4 2834  19.172   9.264   7.652 -0.1154 -0.0042  0.0263
    1DPPC   GL1 2835  19.077   8.822   7.300  0.0512 -0.0055  0.3089
    1DPPC   GL2 2836  19.353   8.779   7.230 -0.0151  0.1249  0.0451
    1DPPC   C1A 2837  18.973   8.835   6.923 -0.1888 -0.0074 -0.0741
    1DPPC   C2A 2838  18.943   8.757   6.444  0.0905 -0.5345  0.2894
    1DPPC   C3A 2839  19.186   8.850   5.983 -0.1397 -0.1722  0.1413
    1DPPC   C4A 2840  19.277   8.955   5.594  0.0976 -0.1877  0.1390
    1DPPC   C1B 2841  19.483   8.728   6.852 -0.0282 -0.2649  0.1890
    1DPPC   C2B 2842  19.499   8.671   6.383 -0.2104  0.2997  0.1775
    1DPPC   C3B 2843  19.718   8.595   5.969 -0.1834  0.2060  0.1146
    1DPPC   C4B 2844  19.882   8.788   5.595 -0.1209 -0.1502  0.0403
    1DPPC   NC3 2845  20.445  20.595   6.074 -0.2407  0.0312 -0.2775
    1DPPC   PO4 2846  20.125  20.365   5.926 -0.1077 -0.0879  0.1369
    1DPPC   GL1 2847  20.175  20.494   5.510 -0.0558 -0.3036 -0.1465
    1DPPC   GL2 2848  20.478  20.633   5.518 -0.0416 -0.0753  0.0077
    1DPPC   C1A 2849  19.976  20.448   5.099 -0.1877  0.0581 -0.0674
    1DPPC   C2A 2850  20.146  20.298   4.673 -0.1006  0.0546  0.2204
    1DPPC   C3A 2851  20.095  20.422   4.209 -0.1398  0.0318 -0.0349
    1DPPC   C4A 2852  20.196  20.537   3.862  0.0598  0.0408  0.2513
    1DPPC   C1B 2853  20.466  20.367   5.060  0.1330 -0.1231 -0.0459
    1DPPC   C2B 2854  20.661  20.266   4.670  0.0246  0.0175  0.1019
    1DPPC   C3B 2855  20.733  20.050   4.294  0.0796  0.0965  0.0186
    1DPPC   C4B 2856  20.561  20.066   3.947  0.0766 -0.3009  0.0031
    1DPPC   NC3 2857  17.277  15.692   6.574  0.0874 -0.4920 -0.1925
    1DPPC   PO4 2858  17.633  15.390   6.688 -0.3245  0.0372  0.1488
    1DPPC   GL1 2859  17.492  15.352   6.249 -0.1065  0.3137  0.0758
    1DPPC   GL2 2860  17.467  15.602   6.082  0.0229  0.0673  0.0949
    1DPPC   C1A 2861  17.657  15.183   5.769  0.2274 -0.2058  0.0391
    1DPPC   C2A 2862  17.833  14.966   5.404 -0.0362 -0.0863 -0.1361
    1DPPC   C3A 2863  17.998  14.810   5.018 -0.0518  0.0111 -0.0908
    1DPPC   C4A 2864  18.094  15.101   4.626  0.0912  0.0114 -0.0161
    1DPPC   C1B 2865  17.548  15.695   5.653  0.1690 -0.1154  0.1717
    1DPPC   C2B 2866  17.451  15.828   5.287  0.1588  0.1718 -0.2486
    1DPPC   C3B 2867  17.577  15.753   4.918 -0.0099  0.0045 -0.1404
    1DPPC   C4B 2868  17.835  16.055   4.640  0.2578 -0.1917  0.1359
    1DPPC   NC3 2869  17.678  12.187   7.481 -0.1187  0.0535 -0.1152
    1DPPC   PO4 2870  18.017  12.328   7.093  0.2201  0.0220  0.4396
    1DPPC   GL1 2871  17.758  12.435   6.752 -0.0356  0.2591 -0.1057
    1DPPC   GL2 2872  17.911  12.636   6.598  0.0041  0.0058  0.2312
    1DPPC   C1A 2873  17.329  12.424   6.601  0.2501  0.2616  0.1612
    1DPPC   C2A 2874  17.169  12.387   6.203  0.1063 -0.2610  0.0588
    1DPPC   C3A 2875  17.098  12.445   5.856  0.2247  0.1653  0.0585
    1DPPC   C4A 2876  16.918  12.635   5.554 -0.1360  0.2866  0.0404
    1DPPC   C1B 2877  17.977  12.347   6.292 -0.1159  0.0828  0.0130
    1DPPC   C2B 2878  17.985  12.273   5.903 -0.2936 -0.1193 -0.0087
    1DPPC   C3B 2879  17.905  12.297   5.559 -0.0505  0.1614  0.0851
    1DPPC   C4B 2880  18.084  12.423   5.193  0.0660  0.1253 -0.1333
    1DPPC   NC3 2881  29.656   6.407   6.782 -0.1861  0.0088 -0.0977
    1DPPC   PO4 2882  29.140   6.495   6.811  0.0104  0.0769  0.0408
    1DPPC   GL1 2883  29.254   6.542   6.421  0.1872 -0.0703  0.0390
    1DPPC   GL2 2884  29.605   6.629   6.261  0.0502  0.0454  0.1957
    1DPPC   C1A 2885  29.240   6.740   5.962 -0.0345 -0.0921  0.1312
    1DPPC   C2A 2886  29.107   6.541   5.519  0.0179 -0.4218  0.1697
    1DPPC   C3A 2887  29.153   6.326   5.104  0.2577  0.0296 -0.2065
    1DPPC   C4A 2888  29.282   5.986   4.800 -0.2981  0.1071  0.2024
    1DPPC   C1B 2889  29.788   6.685   5.898  0.2736 -0.4511  0.2250
    1DPPC   C2B 2890  29.739   6.604   5.486  0.2873 -0.1295 -0.0099
    1DPPC   C3B 2891  29.631   6.492   5.026 -0.0003 -0.0284 -0.2552
    1DPPC   C4B 2892  29.847   6.321   4.693  0.2437 -0.1279 -0.1531
    1DPPC   NC3 2893  22.291  13.158   6.864 -0.2558 -0.2676  0.2323
    1DPPC   PO4 2894  22.228  12.850   6.596  0.4246 -0.1316 -0.2435
    1DPPC   GL1 2895  22.039  12.748   6.270  0.0640  0.0369  0.0579
    1DPPC   GL2 2896  21.858  12.514   6.442 -0.0748  0.0845 -0.0825
    1DPPC   C1A 2897  21.726  12.742   6.004 -0.1719  0.3125 -0.0035
    1DPPC   C2A 2898  21.622  12.490   5.714  0.0687  0.2440  0.1424
    1DPPC   C3A 2899  21.483  12.364   5.295 -0.1045 -0.1051 -0.2886
    1DPPC   C4A 2900  21.318  12.416   4.959  0.3163  0.2607  0.0959
    1DPPC   C1B 2901  21.650  12.213   6.214  0.1373 -0.5567 -0.0111
    1DPPC   C2B 2902  21.571  12.023   5.831  0.0238  0.0578  0.2340
    1DPPC   C3B 2903  21.603  11.863   5.435  0.2341  0.4870 -0.0795
    1DPPC   C4B 2904  21.477  11.847   5.078 -0.0701  0.1888  0.2191
    1DPPC   NC3 2905  17.224  23.303   5.845  0.1071 -0.2563  0.2894
    1DPPC   PO4 2906  17.030  23.171   5.461  0.0940 -0.3683  0.1931
    1DPPC   GL1 2907  17.260  23.196   5.065 -0.1325  0.0564 -0.2141
    1DPPC   GL2 2908  17.396  22.915   4.958 -0.0094 -0.1873  0.0124
    1DPPC   C1A 2909  17.437  23.315   4.705  0.1059  0.1278  0.1031
    1DPPC   C2A 2910  17.438  23.291   4.216 -0.0903 -0.1090 -0.1236
    1DPPC   C3A 2911  17.486  23.309   3.863 -0.1487 -0.5433  0.0671
    1DPPC   C4A 2912  17.833  23.153   3.725  0.3402 -0.0482  0.0348
    1DPPC   C1B 2913  17.378  22.891   4.474 -0.3179  0.0489  0.1034
    1DPPC   C2B 2914  17.572  22.774   4.018 -0.0576  0.1324  0.1507
    1DPPC   C3B 2915  17.581  22.390   3.815 -0.0345  0.3970  0.0147
    1DPPC   C4B 2916  17.211  22.165   3.550 -0.0197  0.3147  0.4122
    1DPPC   NC3 2917  21.205  15.508   6.876  0.1513 -0.0832 -0.2022
    1DPPC   PO4 2918  20.852  15.455   6.624  0.0806  0.1390  0.1771
    1DPPC   GL1 2919  20.855  15.194   6.175  0.0140 -0.2118  0.2489
    1DPPC   GL2 2920  21.153  15.416   6.202  0.2009  0.0518  0.3075
    1DPPC   C1A 2921  20.719  14.986   5.807 -0.0364 -0.2328  0.1426
    1DPPC   C2A 2922  20.886  14.944   5.400 -0.0383  0.0635 -0.1320
    1DPPC   C3A 2923  20.827  14.868   4.990  0.0187  0.0151 -0.0355
    1DPPC   C4A 2924  20.772  14.790   4.552 -0.2222  0.1990  0.0005
    1DPPC   C1B 2925  21.133  15.363   5.702 -0.1605  0.0898 -0.1475
    1DPPC   C2B 2926  21.179  15.335   5.234 -0.1657 -0.1946  0.3998
    1DPPC   C3B 2927  21.284  15.198   4.809  0.0070  0.3983  0.1123
    1DPPC   C4B 2928  21.610  15.351   4.564 -0.0834 -0.1353  0.2602
    1DPPC   NC3 2929  20.903  16.367   6.508  0.1061 -0.4597  0.0795
    1DPPC   PO4 2930  20.924  16.689   6.169 -0.4842 -0.0334 -0.0301
    1DPPC   GL1 2931  20.912  16.542   5.811  0.1846  0.1696  0.0929
    1DPPC   GL2 2932  21.257  16.415   5.688 -0.5258 -0.2056  0.2304
    1DPPC   C1A 2933  20.778  16.288   5.559  0.1411 -0.0148  0.0782
    1DPPC   C2A 2934  20.713  16.039   5.156  0.0003 -0.0669 -0.3211
    1DPPC   C3A 2935  20.471  15.915   4.763  0.0471  0.0532  0.0569
    1DPPC   C4A 2936  20.113  15.925   4.642 -0.1956  0.1467 -0.2921
    1DPPC   C1B 2937  21.240  16.348   5.252  0.1075 -0.0674 -0.1100
    1DPPC   C2B 2938  21.354  16.222   4.912  0.0126 -0.2674 -0.0802
    1DPPC   C3B 2939  21.536  16.321   4.399 -0.1807 -0.1666 -0.1134
    1DPPC   C4B 2940  21.502  16.101   3.994  0.0708 -0.1680  0.2885
    1DPPC   NC3 2941   2.850  21.501   6.774  0.0292  0.4767  0.1276
    1DPPC   PO4 2942   2.627  21.172   6.511 -0.3641  0.3344  0.4099
    1DPPC   GL1 2943   2.734  20.947   6.111  0.3432 -0.1151  0.1199
    1DPPC   GL2 2944   2.403  20.868   6.033  0.1935 -0.1799 -0.1072
    1DPPC   C1A 2945   2.914  21.077   5.765  0.0550 -0.0862 -0.0058
    1DPPC   C2A 2946   2.897  20.913   5.352  0.0937  0.0978 -0.0297
    1DPPC   C3A 2947   2.898  21.162   4.984 -0.0454  0.1418  0.1627
    1DPPC   C4A 2948   2.674  21.213   4.575 -0.1933  0.1583  0.1031
    1DPPC   C1B 2949   2.414  21.007   5.575 -0.0337  0.1287  0.0762
    1DPPC   C2B 2950   2.455  21.187   5.193 -0.1883  0.1796  0.1922
    1DPPC   C3B 2951   2.272  20.964   4.808  0.2305 -0.1893 -0.0530
    1DPPC   C4B 2952   2.164  20.685   4.477 -0.0177  0.2281 -0.0333
    1DPPC   NC3 2953  27.161   7.386   6.681 -0.2298  0.0849 -0.1979
    1DPPC   PO4 2954  26.981   7.006   6.597  0.0144  0.0365 -0.3994
    1DPPC   GL1 2955  27.076   7.025   6.198  0.2132 -0.2575  0.0637
    1DPPC   GL2 2956  27.455   7.253   6.272  0.0285  0.1299 -0.0723
    1DPPC   C1A 2957  27.131   7.088   5.784 -0.0789  0.1569 -0.1762
    1DPPC   C2A 2958  27.110   7.068   5.343 -0.1824 -0.2975 -0.1982
    1DPPC   C3A 2959  27.444   7.163   5.162 -0.3312  0.2861 -0.1695
    1DPPC   C4A 2960  27.852   7.097   4.881  0.4713 -0.0664 -0.1395
    1DPPC   C1B 2961  27.747   6.934   6.180  0.1086 -0.1479  0.2665
    1DPPC   C2B 2962  28.005   6.774   5.928  0.0949 -0.1541 -0.1784
    1DPPC   C3B 2963  27.875   6.458   5.608  0.0176  0.0412  0.0496
    1DPPC   C4B 2964  27.668   6.189   5.401 -0.0216 -0.4657 -0.0960
    1DPPC   NC3 2965  21.639  10.199   7.767  0.1089 -0.0061 -0.2923
    1DPPC   PO4 2966  21.669  10.333   7.370  0.1399  0.0076  0.1032
    1DPPC   GL1 2967  21.727  10.181   6.954  0.0146 -0.0616 -0.2718
    1DPPC   GL2 2968  22.094  10.116   6.981  0.1154  0.0159 -0.2742
    1DPPC   C1A 2969  21.525  10.012   6.521 -0.2360  0.0166  0.1410
    1DPPC   C2A 2970  21.443   9.895   6.116 -0.0060 -0.0643  0.0655
    1DPPC   C3A 2971  21.506   9.809   5.642 -0.0634  0.2852 -0.2108
    1DPPC   C4A 2972  21.482   9.757   5.211  0.2054 -0.1972 -0.2407
    1DPPC   C1B 2973  22.061   9.893   6.569  0.0479  0.0185 -0.0435
    1DPPC   C2B 2974  21.956   9.757   6.198  0.0503  0.0648 -0.1857
    1DPPC   C3B 2975  21.934   9.559   5.748 -0.3127 -0.0454  0.0435
    1DPPC   C4B 2976  22.005   9.659   5.324  0.2698  0.1543 -0.0863
    1DPPC   NC3 2977  15.128   8.863   7.395 -0.0181  0.1689  0.2553
    1DPPC   PO4 2978  15.509   8.699   7.528 -0.2833 -0.2467 -0.1495
    1DPPC   GL1 2979  15.475   8.477   7.107 -0.3174 -0.3025  0.0131
    1DPPC   GL2 2980  15.128   8.499   6.986 -0.0031 -0.0167 -0.3458
    1DPPC   C1A 2981  15.413   8.171   6.719  0.0557 -0.1892  0.0063
    1DPPC   C2A 2982  15.294   8.020   6.305 -0.2851 -0.0118  0.2505
    1DPPC   C3A 2983  15.152   8.223   5.949  0.1518 -0.0022 -0.2011
    1DPPC   C4A 2984  14.871   8.301   5.523  0.0413  0.3256  0.0163
    1DPPC   C1B 2985  15.090   8.761   6.732 -0.0480 -0.3757  0.3551
    1DPPC   C2B 2986  15.087   8.857   6.262 -0.0619 -0.2083  0.2752
    1DPPC   C3B 2987  14.973   8.806   5.758 -0.1543  0.2088 -0.0224
    1DPPC   C4B 2988  14.960   9.099   5.275 -0.1454 -0.0421  0.0049
    1DPPC   NC3 2989  18.010  17.459   6.734 -0.0193  0.2205  0.1162
    1DPPC   PO4 2990  17.938  17.409   6.231  0.0008 -0.0727  0.0390
    1DPPC   GL1 2991  17.968  17.262   5.844 -0.2186  0.3079  0.1589
    1DPPC   GL2 2992  18.232  17.392   5.648  0.1931  0.0650 -0.0239
    1DPPC   C1A 2993  17.797  17.006   5.482 -0.0509  0.0262  0.0385
    1DPPC   C2A 2994  17.931  16.899   5.025  0.0417 -0.2725  0.2649
    1DPPC   C3A 2995  18.015  16.890   4.589  0.0312 -0.1660 -0.2800
    1DPPC   C4A 2996  18.121  16.897   4.199 -0.1076  0.1931 -0.0680
    1DPPC   C1B 2997  18.192  17.196   5.311  0.1725 -0.0301 -0.0727
    1DPPC   C2B 2998  18.344  17.111   4.854 -0.2441 -0.2695  0.4646
    1DPPC   C3B 2999  18.485  17.171   4.416 -0.3679  0.0781  0.2663
    1DPPC   C4B 3000  18.521  17.225   3.984 -0.0709  0.2998  0.1257
    1DPPC   NC3 3001  19.743  10.641   7.171  0.0548 -0.1808 -0.0157
    1DPPC   PO4 3002  20.040  11.123   7.258  0.2333  0.1611 -0.1305
    1DPPC   GL1 3003  20.170  10.824   6.911  0.0407  0.0776  0.0026
    1DPPC   GL2 3004  20.527  10.834   6.798  0.0337  0.1910 -0.2164
    1DPPC   C1A 3005  20.044  10.705   6.441  0.0589  0.1498 -0.2755
    1DPPC   C2A 3006  19.883  10.852   6.070 -0.2504 -0.1780 -0.2291
    1DPPC   C3A 3007  20.028  10.876   5.743 -0.1421  0.1286  0.0162
    1DPPC   C4A 3008  19.999  10.976   5.297 -0.3242 -0.3319  0.1007
    1DPPC   C1B 3009  20.447  10.913   6.440  0.0272 -0.1886  0.1360
    1DPPC   C2B 3010  20.456  10.893   6.043  0.0665  0.1139  0.2163
    1DPPC   C3B 3011  20.483  10.821   5.652 -0.0403  0.1688  0.0795
    1DPPC   C4B 3012  20.591  10.720   5.196 -0.2441 -0.2083 -0.3597
    1DPPC   NC3 3013  19.861   7.254   7.864  0.0238  0.1830 -0.0133
    1DPPC   PO4 3014  19.540   7.521   7.902 -0.2626 -0.2191 -0.0996
    1DPPC   GL1 3015  19.402   7.427   7.474  0.1614 -0.0768 -0.1288
    1DPPC   GL2 3016  19.163   7.229   7.479 -0.2020  0.1849  0.3744
    1DPPC   C1A 3017  19.515   7.442   7.025  0.1807 -0.1635 -0.0896
    1DPPC   C2A 3018  19.466   7.294   6.591  0.0693 -0.1361 -0.1097
    1DPPC   C3A 3019  19.649   7.166   6.339 -0.0476  0.1762 -0.0943
    1DPPC   C4A 3020  19.988   6.957   6.350  0.1034  0.0535  0.0136
    1DPPC   C1B 3021  19.280   6.774   7.436 -0.3071 -0.3342  0.2578
    1DPPC   C2B 3022  19.526   6.569   7.173  0.0080  0.0904 -0.0635
    1DPPC   C3B 3023  19.938   6.422   7.026 -0.0840  0.0891 -0.3882
    1DPPC   C4B 3024  20.318   6.626   7.065 -0.2407  0.0430  0.1314
    1DPPC   NC3 3025  15.110   7.327   7.681  0.0117 -0.0447 -0.3139
    1DPPC   PO4 3026  14.823   7.670   7.891 -0.2372  0.0998  0.1413
    1DPPC   GL1 3027  14.934   7.766   7.413 -0.2077  0.0287 -0.0172
    1DPPC   GL2 3028  15.029   7.480   7.215 -0.1041  0.0784  0.1104
    1DPPC   C1A 3029  14.998   8.005   7.023  0.3520 -0.1583  0.1845
    1DPPC   C2A 3030  14.878   7.917   6.622  0.0720 -0.1562 -0.1744
    1DPPC   C3A 3031  14.713   8.021   6.260 -0.1137  0.0536 -0.2969
    1DPPC   C4A 3032  14.592   8.021   5.806  0.1300 -0.3231  0.0741
    1DPPC   C1B 3033  14.949   7.097   6.963 -0.0480 -0.2586  0.1304
    1DPPC   C2B 3034  14.676   6.881   6.640  0.2009 -0.1445 -0.1684
    1DPPC   C3B 3035  14.541   6.638   6.283 -0.1755  0.0826 -0.2199
    1DPPC   C4B 3036  14.464   6.337   6.024 -0.0737  0.0269 -0.2677
    1DPPC   NC3 3037   2.166  25.611   5.535 -0.2556 -0.2834 -0.0904
    1DPPC   PO4 3038   1.800  25.348   5.314 -0.5652  0.0983  0.1978
    1DPPC   GL1 3039   1.386  25.439   5.318  0.3488  0.4385  0.1965
    1DPPC   GL2 3040   1.044  25.256   5.348 -0.0287 -0.1589 -0.0602
    1DPPC   C1A 3041   0.998  25.551   4.997  0.3042 -0.0911 -0.0266
    1DPPC   C2A 3042   0.741  25.748   4.663  0.1863 -0.1787 -0.0460
    1DPPC   C3A 3043   0.760  26.037   4.472  0.0992  0.2308 -0.2031
    1DPPC   C4A 3044   0.834  26.484   4.240  0.1508  0.0323 -0.2550
    1DPPC   C1B 3045   0.933  24.954   5.060 -0.0547  0.0377  0.2322
    1DPPC   C2B 3046   0.590  24.786   4.696 -0.5305 -0.0779  0.0492
    1DPPC   C3B 3047   0.431  24.900   4.226 -0.1866  0.2967 -0.0445
    1DPPC   C4B 3048   0.321  24.989   3.757  0.0514  0.0797 -0.0631
    1DPPC   NC3 3049   7.321  15.481   5.879 -0.0286 -0.0153  0.2710
    1DPPC   PO4 3050   7.526  15.309   5.523 -0.0783 -0.3316  0.2728
    1DPPC   GL1 3051   7.782  15.202   5.274 -0.3888 -0.1707  0.0229
    1DPPC   GL2 3052   7.887  14.957   5.440  0.2509 -0.1135 -0.2088
    1DPPC   C1A 3053   7.977  15.094   4.927  0.0432  0.0576 -0.1240
    1DPPC   C2A 3054   7.851  14.812   4.722 -0.1133  0.0374  0.2733
    1DPPC   C3A 3055   7.946  14.435   4.517  0.2519 -0.0448  0.1381
    1DPPC   C4A 3056   8.237  14.137   4.403 -0.1441  0.0011  0.1473
    1DPPC   C1B 3057   7.550  14.733   5.180  0.1353 -0.4456 -0.3011
    1DPPC   C2B 3058   7.370  14.643   4.704 -0.0873 -0.1596 -0.0535
    1DPPC   C3B 3059   7.359  15.015   4.362 -0.0483 -0.0866 -0.2332
    1DPPC   C4B 3060   7.220  15.018   3.921  0.1773 -0.1474 -0.0245
    1DPPC   NC3 3061  10.702   9.277   6.835 -0.0332  0.0007 -0.1576
    1DPPC   PO4 3062  10.403   9.220   6.576 -0.1558 -0.1057  0.1036
    1DPPC   GL1 3063  10.736   9.326   6.302  0.0722  0.1096 -0.0941
    1DPPC   GL2 3064  10.941   9.194   6.432 -0.0084 -0.0296  0.0589
    1DPPC   C1A 3065  10.973   9.271   5.856 -0.0472 -0.1735  0.0129
    1DPPC   C2A 3066  11.207   9.315   5.469 -0.0937 -0.1045 -0.1127
    1DPPC   C3A 3067  11.551   9.386   5.164 -0.1892 -0.0307 -0.0281
    1DPPC   C4A 3068  11.831   9.046   5.060  0.3466 -0.1299 -0.0886
    1DPPC   C1B 3069  11.041   8.849   6.126 -0.0052  0.2666 -0.1124
    1DPPC   C2B 3070  11.232   8.729   5.701 -0.4148 -0.1312  0.0813
    1DPPC   C3B 3071  11.387   8.833   5.275  0.3925 -0.0832 -0.1874
    1DPPC   C4B 3072  11.318   9.046   4.877  0.0947  0.0905  0.1637
    1DPPC   NC3 3073  11.355  24.802   6.098 -0.0798  0.0506 -0.1336
    1DPPC   PO4 3074  11.289  25.156   6.020 -0.2591 -0.0275  0.0141
    1DPPC   GL1 3075  11.062  24.935   5.674  0.0230  0.1389 -0.1045
    1DPPC   GL2 3076  11.389  25.005   5.544  0.2067 -0.0235  0.2915
    1DPPC   C1A 3077  11.060  24.655   5.306 -0.0150  0.0472 -0.2027
    1DPPC   C2A 3078  10.960  24.922   4.885  0.2498 -0.0792 -0.0217
    1DPPC   C3A 3079  10.963  24.893   4.468  0.1313  0.2744  0.0087
    1DPPC   C4A 3080  10.749  24.845   4.082  0.0999 -0.2435  0.0699
    1DPPC   C1B 3081  11.403  25.030   5.157 -0.0663  0.3441  0.0960
    1DPPC   C2B 3082  11.414  25.179   4.685 -0.0246  0.4903  0.7574
    1DPPC   C3B 3083  11.490  25.163   4.298 -0.1926 -0.0059  0.2233
    1DPPC   C4B 3084  11.892  25.237   3.998 -0.1615 -0.2490 -0.3426
    1DPPC   NC3 3085   1.011  23.547   6.215 -0.1899 -0.2366  0.1350
    1DPPC   PO4 3086   0.886  23.237   6.114 -0.2940 -0.1442 -0.1436
    1DPPC   GL1 3087   1.198  23.143   5.785  0.0391 -0.2019 -0.1941
    1DPPC   GL2 3088   1.498  23.334   5.932 -0.1780 -0.2114 -0.2778
    1DPPC   C1A 3089   1.196  22.937   5.410  0.2101  0.1045 -0.2531
    1DPPC   C2A 3090   1.208  22.697   5.001 -0.1250  0.1662 -0.2760
    1DPPC   C3A 3091   1.374  22.559   4.676  0.2641 -0.0698  0.0496
    1DPPC   C4A 3092   1.236  22.346   4.171 -0.0209 -0.2216  0.0073
    1DPPC   C1B 3093   1.684  23.197   5.563  0.2116 -0.0198  0.2379
    1DPPC   C2B 3094   1.599  22.954   5.202  0.0479 -0.2265  0.1499
    1DPPC   C3B 3095   1.762  22.975   4.865 -0.2113 -0.2255 -0.0331
    1DPPC   C4B 3096   1.881  22.882   4.470 -0.3039 -0.2298 -0.3152
    1DPPC   NC3 3097  16.798   7.644   8.100  0.1226  0.0247 -0.1908
    1DPPC   PO4 3098  16.708   7.271   7.918 -0.0824  0.2258 -0.4908
    1DPPC   GL1 3099  16.603   7.047   7.516  0.1713  0.2503  0.2623
    1DPPC   GL2 3100  16.874   6.912   7.369  0.1449 -0.2285  0.2906
    1DPPC   C1A 3101  16.410   6.921   7.052 -0.0227 -0.0130 -0.0353
    1DPPC   C2A 3102  16.490   6.803   6.686 -0.2273  0.1191 -0.0648
    1DPPC   C3A 3103  16.247   6.795   6.221 -0.2507 -0.0930  0.2695
    1DPPC   C4A 3104  16.338   6.858   5.788 -0.3245  0.2143 -0.0950
    1DPPC   C1B 3105  17.065   6.792   6.888  0.0905 -0.0909  0.0378
    1DPPC   C2B 3106  17.004   6.738   6.393 -0.3003  0.1901  0.1799
    1DPPC   C3B 3107  16.718   6.743   6.078  0.0945  0.1367 -0.1136
    1DPPC   C4B 3108  16.475   6.388   5.857  0.1713 -0.3369 -0.0623
    1DPPC   NC3 3109   2.909  22.380   6.641  0.4531  0.3205 -0.2015
    1DPPC   PO4 3110   2.555  22.628   6.476  0.3071 -0.2756 -0.3180
    1DPPC   GL1 3111   2.384  22.295   6.214  0.4721 -0.0646  0.1001
    1DPPC   GL2 3112   2.112  22.335   6.125  0.1355  0.0721 -0.1770
    1DPPC   C1A 3113   2.369  21.939   5.917 -0.3169 -0.5262  0.2560
    1DPPC   C2A 3114   2.231  21.823   5.568 -0.0991 -0.0543  0.0991
    1DPPC   C3A 3115   2.406  21.655   5.285  0.1005 -0.0445  0.2470
    1DPPC   C4A 3116   2.719  21.612   4.919  0.0121  0.3595 -0.0351
    1DPPC   C1B 3117   2.236  22.339   5.683 -0.3364  0.3303 -0.3107
    1DPPC   C2B 3118   2.097  22.217   5.300  0.5185 -0.0336 -0.0209
    1DPPC   C3B 3119   1.970  21.807   5.042 -0.1756  0.2544 -0.0319
    1DPPC   C4B 3120   2.228  21.486   4.826 -0.2408 -0.1666  0.0113
    1DPPC   NC3 3121  14.257  10.460   7.244 -0.0421 -0.1888 -0.2413
    1DPPC   PO4 3122  14.331  10.023   7.058 -0.2313 -0.5646 -0.3698
    1DPPC   GL1 3123  14.526   9.887   6.807  0.0247  0.1345 -0.1465
    1DPPC   GL2 3124  14.772   9.695   6.915  0.0609 -0.2599 -0.1399
    1DPPC   C1A 3125  14.723   9.819   6.417  0.0169  0.0821 -0.0290
    1DPPC   C2A 3126  14.714  10.000   6.000  0.2679  0.0510 -0.1995
    1DPPC   C3A 3127  14.841  10.041   5.633  0.3416  0.0204 -0.1964
    1DPPC   C4A 3128  14.926  10.217   5.238  0.2096  0.0887  0.0538
    1DPPC   C1B 3129  14.913   9.389   6.644 -0.2305  0.0159 -0.3990
    1DPPC   C2B 3130  14.964   9.436   6.224  0.2982 -0.0211 -0.2999
    1DPPC   C3B 3131  14.901   9.400   5.729 -0.3303  0.3230 -0.2989
    1DPPC   C4B 3132  14.530   9.196   5.524 -0.1467 -0.1090 -0.3594
    1DPPC   NC3 3133  20.927  26.837   6.641  0.1075  0.4887 -0.1263
    1DPPC   PO4 3134  21.422  26.704   6.594 -0.0411 -0.0876  0.2165
    1DPPC   GL1 3135  21.391  26.793   6.177 -0.1484  0.2306  0.1236
    1DPPC   GL2 3136  21.291  26.596   5.908 -0.2791  0.2631  0.3203
    1DPPC   C1A 3137  21.214  27.055   5.892  0.2913  0.1151  0.0252
    1DPPC   C2A 3138  21.006  26.980   5.426  0.3620  0.0725 -0.0324
    1DPPC   C3A 3139  20.885  26.981   5.124 -0.0974  0.1787 -0.1248
    1DPPC   C4A 3140  20.409  27.001   4.915 -0.1725  0.0554 -0.0157
    1DPPC   C1B 3141  21.275  26.614   5.497  0.3029  0.0186  0.4284
    1DPPC   C2B 3142  21.387  26.810   5.107  0.0706 -0.1452  0.3364
    1DPPC   C3B 3143  21.494  27.036   4.848 -0.1457  0.0294  0.1471
    1DPPC   C4B 3144  21.712  27.376   4.841 -0.1930  0.2513 -0.1053
    1DPPC   NC3 3145  17.977  24.380   5.692 -0.0364 -0.2351 -0.0896
    1DPPC   PO4 3146  17.550  24.315   5.705 -0.1368 -0.4372  0.2063
    1DPPC   GL1 3147  17.690  24.720   5.347 -0.2769  0.1915 -0.2175
    1DPPC   GL2 3148  17.994  24.749   5.400 -0.2378  0.0541 -0.2205
    1DPPC   C1A 3149  17.620  24.840   4.987  0.1418  0.0227  0.1284
    1DPPC   C2A 3150  17.654  24.801   4.549 -0.4255  0.1019  0.3977
    1DPPC   C3A 3151  17.857  24.641   4.103 -0.1184  0.1340  0.0044
    1DPPC   C4A 3152  18.113  24.389   3.939  0.0834 -0.2030 -0.1293
    1DPPC   C1B 3153  18.034  25.077   5.111 -0.2414  0.2205 -0.0737
    1DPPC   C2B 3154  18.048  25.358   4.784  0.2176  0.0589  0.2543
    1DPPC   C3B 3155  18.056  25.658   4.455 -0.2960 -0.2162 -0.0156
    1DPPC   C4B 3156  17.924  25.886   4.062  0.0381 -0.2439  0.0915
    1DPPC   NC3 3157  24.036  17.868   7.020 -0.2434 -0.2414  0.2340
    1DPPC   PO4 3158  24.059  17.779   6.490  0.0767  0.0983  0.0426
    1DPPC   GL1 3159  24.098  17.595   6.074 -0.1112 -0.2783 -0.0619
    1DPPC   GL2 3160  24.052  17.906   5.783  0.0698 -0.2163 -0.0171
    1DPPC   C1A 3161  24.184  17.280   5.693  0.1858 -0.1820 -0.1628
    1DPPC   C2A 3162  24.403  16.907   5.445 -0.2279 -0.2350 -0.0165
    1DPPC   C3A 3163  24.627  16.614   5.181  0.0748  0.0077  0.0800
    1DPPC   C4A 3164  24.601  16.264   5.193 -0.3763 -0.0797  0.2546
    1DPPC   C1B 3165  24.218  17.687   5.416  0.0465 -0.1206 -0.1622
    1DPPC   C2B 3166  24.189  17.333   5.204  0.0664 -0.3230  0.1595
    1DPPC   C3B 3167  24.316  16.941   4.916  0.1788  0.1533  0.3569
    1DPPC   C4B 3168  24.388  16.453   4.785  0.1927  0.1242 -0.0220
    1DPPC   NC3 3169  14.448  22.127   5.316 -0.2141 -0.1633 -0.1122
    1DPPC   PO4 3170  14.816  21.908   5.510  0.1684  0.2934 -0.5644
    1DPPC   GL1 3171  14.777  21.800   5.111  0.0170  0.1598  0.1844
    1DPPC   GL2 3172  14.925  22.027   4.927  0.0096  0.0926  0.0344
    1DPPC   C1A 3173  14.999  21.518   4.756  0.3390  0.0696 -0.0951
    1DPPC   C2A 3174  15.033  21.208   4.466 -0.0641 -0.2180  0.1249
    1DPPC   C3A 3175  14.867  20.879   4.232  0.0244  0.2882 -0.0909
    1DPPC   C4A 3176  14.560  20.629   4.394  0.0920  0.2589 -0.1344
    1DPPC   C1B 3177  14.585  21.839   4.611  0.0063 -0.0076 -0.4068
    1DPPC   C2B 3178  14.308  21.764   4.317 -0.1034  0.1437  0.1040
    1DPPC   C3B 3179  14.246  21.615   3.981  0.4516 -0.0978  0.0150
    1DPPC   C4B 3180  14.169  21.824   3.586  0.2365 -0.0471 -0.1518
    1DPPC   NC3 3181  17.515  21.692   5.428  0.1847  0.0518  0.0748
    1DPPC   PO4 3182  17.241  21.932   5.433  0.0322  0.1350 -0.1670
    1DPPC   GL1 3183  17.376  22.027   5.012 -0.1639 -0.1898 -0.0617
    1DPPC   GL2 3184  17.420  22.391   4.903 -0.0413 -0.0506  0.0819
    1DPPC   C1A 3185  17.390  21.723   4.621 -0.2018 -0.1034  0.0975
    1DPPC   C2A 3186  17.311  21.381   4.243  0.0051 -0.2832  0.0498
    1DPPC   C3A 3187  17.520  21.248   3.767  0.0269 -0.2482 -0.4344
    1DPPC   C4A 3188  17.781  21.254   3.307  0.1706 -0.0482 -0.0801
    1DPPC   C1B 3189  17.345  22.234   4.466  0.0977  0.0538  0.1121
    1DPPC   C2B 3190  17.105  22.324   3.998  0.0394  0.0143  0.1171
    1DPPC   C3B 3191  17.195  22.648   3.655 -0.3539 -0.1504 -0.3270
    1DPPC   C4B 3192  17.067  22.722   3.246 -0.1527  0.2334  0.2304
    1DPPC   NC3 3193  20.338  15.586   6.496 -0.0739 -0.2470  0.1135
    1DPPC   PO4 3194  20.186  15.948   6.428  0.0410  0.0826  0.4539
    1DPPC   GL1 3195  20.116  15.817   6.012 -0.3846 -0.5509  0.1271
    1DPPC   GL2 3196  20.182  15.441   5.967 -0.0329  0.0296  0.2024
    1DPPC   C1A 3197  20.318  15.982   5.661  0.0922  0.4285  0.2596
    1DPPC   C2A 3198  20.173  16.006   5.236  0.1277  0.1107  0.0770
    1DPPC   C3A 3199  19.899  16.256   5.050  0.1490 -0.1160  0.1144
    1DPPC   C4A 3200  19.489  16.420   5.083 -0.0994  0.3036 -0.0146
    1DPPC   C1B 3201  19.963  15.560   5.578  0.2154 -0.1698  0.1370
    1DPPC   C2B 3202  20.012  15.297   5.281  0.0342  0.1738  0.0603
    1DPPC   C3B 3203  20.210  15.518   4.892 -0.0674 -0.0374  0.3498
    1DPPC   C4B 3204  20.312  15.554   4.445  0.2272  0.2959 -0.0704
    1DPPC   NC3 3205  26.733  13.291   7.309 -0.1694 -0.2978 -0.0980
    1DPPC   PO4 3206  26.579  12.984   7.107  0.1203  0.0968 -0.0008
    1DPPC   GL1 3207  26.773  12.983   6.743  0.0344 -0.0254  0.0472
    1DPPC   GL2 3208  26.670  13.294   6.693 -0.0517 -0.0743  0.1544
    1DPPC   C1A 3209  26.856  13.005   6.273 -0.1438  0.0600  0.2161
    1DPPC   C2A 3210  27.037  12.877   5.864 -0.2812 -0.2016  0.0261
    1DPPC   C3A 3211  27.236  12.814   5.502  0.1764 -0.1297  0.0192
    1DPPC   C4A 3212  27.221  12.724   5.076  0.1625 -0.2316  0.1469
    1DPPC   C1B 3213  26.964  13.535   6.410  0.0910 -0.0590  0.0056
    1DPPC   C2B 3214  27.056  13.384   5.918  0.3093 -0.0497 -0.0334
    1DPPC   C3B 3215  27.194  13.300   5.607 -0.2680  0.0344  0.0382
    1DPPC   C4B 3216  27.308  13.228   5.255 -0.1257 -0.0139 -0.3805
    1DPPC   NC3 3217  27.982   2.221   6.663 -0.5193  0.0096 -0.0397
    1DPPC   PO4 3218  27.939   2.354   6.211 -0.2186 -0.2734 -0.1251
    1DPPC   GL1 3219  27.809   1.919   6.018 -0.1897  0.0377 -0.0986
    1DPPC   GL2 3220  27.604   1.651   6.068 -0.1605 -0.0471 -0.1482
    1DPPC   C1A 3221  27.802   1.600   5.557  0.1105  0.0725 -0.2249
    1DPPC   C2A 3222  27.823   1.379   5.116 -0.2142  0.2684  0.1094
    1DPPC   C3A 3223  27.745   1.077   4.906 -0.1174  0.1573 -0.1868
    1DPPC   C4A 3224  27.869   0.729   4.754  0.1291 -0.0583 -0.1939
    1DPPC   C1B 3225  27.361   1.806   5.712  0.0605 -0.0162 -0.2042
    1DPPC   C2B 3226  27.354   1.676   5.263 -0.3172 -0.2808  0.1678
    1DPPC   C3B 3227  27.500   1.697   4.906 -0.0398  0.0547  0.0922
    1DPPC   C4B 3228  27.529   1.454   4.507 -0.2353 -0.0910 -0.4143
    1DPPC   NC3 3229  25.601  11.342   7.096  0.2757  0.0232 -0.2982
    1DPPC   PO4 3230  25.615  10.818   6.952 -0.3222 -0.2630 -0.0534
    1DPPC   GL1 3231  25.562  10.780   6.595 -0.2678  0.0830 -0.0153
    1DPPC   GL2 3232  25.869  10.661   6.452  0.0907 -0.2624 -0.1311
    1DPPC   C1A 3233  25.404  10.909   6.249 -0.1044 -0.0993  0.3397
    1DPPC   C2A 3234  25.587  10.839   5.914  0.0869 -0.1723 -0.2500
    1DPPC   C3A 3235  25.644  10.919   5.406  0.1122 -0.1467  0.0958
    1DPPC   C4A 3236  25.677  11.207   5.057 -0.1346 -0.0977 -0.2009
    1DPPC   C1B 3237  25.816  10.515   6.162 -0.2309  0.3375  0.1640
    1DPPC   C2B 3238  25.845  10.415   5.771 -0.1798  0.0058 -0.1702
    1DPPC   C3B 3239  25.868  10.464   5.328 -0.0386 -0.3866  0.0598
    1DPPC   C4B 3240  25.979  10.507   4.891 -0.0703  0.2442 -0.1169
    1DPPC   NC3 3241  14.371  15.803   6.557 -0.1285 -0.0032  0.1368
    1DPPC   PO4 3242  14.013  15.575   6.302 -0.1080 -0.0299  0.0329
    1DPPC   GL1 3243  14.018  15.304   5.973 -0.2418  0.0875 -0.1381
    1DPPC   GL2 3244  14.325  15.186   5.896  0.3983 -0.4641 -0.0129
    1DPPC   C1A 3245  14.010  15.060   5.472  0.0260  0.2610 -0.0931
    1DPPC   C2A 3246  14.176  15.221   5.126  0.1448 -0.2033  0.1122
    1DPPC   C3A 3247  14.048  15.240   4.769  0.2205  0.1058  0.3478
    1DPPC   C4A 3248  14.020  15.573   4.539 -0.0327 -0.1753  0.2153
    1DPPC   C1B 3249  14.423  14.848   5.664 -0.0097 -0.1409 -0.3649
    1DPPC   C2B 3250  14.437  14.450   5.320  0.0228 -0.4151 -0.0437
    1DPPC   C3B 3251  14.579  14.347   4.914 -0.1250  0.0817 -0.0158
    1DPPC   C4B 3252  14.509  14.291   4.484 -0.0227 -0.0773  0.3132
    1DPPC   NC3 3253  26.672   6.228   7.437  0.0408  0.0496 -0.1385
    1DPPC   PO4 3254  26.535   5.988   7.011 -0.1393 -0.0282 -0.0012
    1DPPC   GL1 3255  26.172   6.031   6.611  0.0164 -0.2061  0.1606
    1DPPC   GL2 3256  25.912   5.795   6.691 -0.0755 -0.1287  0.0196
    1DPPC   C1A 3257  26.029   6.215   6.216  0.1227  0.1089 -0.0631
    1DPPC   C2A 3258  25.780   6.168   5.805 -0.1722 -0.1720 -0.1303
    1DPPC   C3A 3259  25.597   5.947   5.486 -0.2203  0.2334  0.1880
    1DPPC   C4A 3260  25.318   5.583   5.294  0.0108  0.0732  0.0599
    1DPPC   C1B 3261  25.636   6.168   6.593  0.3725 -0.3555  0.0174
    1DPPC   C2B 3262  25.488   6.523   6.316  0.3760  0.0479  0.0819
    1DPPC   C3B 3263  25.348   6.514   5.868  0.3080  0.2911 -0.0198
    1DPPC   C4B 3264  25.126   6.279   5.535 -0.0805 -0.3293  0.1107
    1DPPC   NC3 3265  13.763  20.846   5.347 -0.1719  0.1910 -0.2740
    1DPPC   PO4 3266  13.426  20.663   5.360 -0.3597 -0.0109  0.0677
    1DPPC   GL1 3267  13.322  20.696   5.004 -0.3896 -0.0741 -0.2213
    1DPPC   GL2 3268  13.570  20.948   4.886 -0.2584  0.1851 -0.3261
    1DPPC   C1A 3269  13.212  20.792   4.532  0.0130 -0.2252 -0.1423
    1DPPC   C2A 3270  13.219  20.802   4.120  0.0697  0.1786 -0.0846
    1DPPC   C3A 3271  13.648  20.998   3.920 -0.1001  0.2216  0.0009
    1DPPC   C4A 3272  14.029  20.894   3.656 -0.2416 -0.1105 -0.1853
    1DPPC   C1B 3273  13.699  20.997   4.442  0.0972  0.1810  0.2467
    1DPPC   C2B 3274  14.053  20.831   4.176  0.0817 -0.2150 -0.0942
    1DPPC   C3B 3275  14.289  20.565   3.921 -0.0196  0.0519  0.2690
    1DPPC   C4B 3276  14.603  20.249   3.913  0.3294 -0.2732 -0.0824
    1DPPC   NC3 3277  12.596  16.854   5.874 -0.2146  0.0483  0.0666
    1DPPC   PO4 3278  12.606  17.215   6.084 -0.3997 -0.0218 -0.1686
    1DPPC   GL1 3279  12.347  17.308   5.616  0.1328 -0.4649  0.1066
    1DPPC   GL2 3280  12.482  17.045   5.359 -0.0087  0.2399  0.1742
    1DPPC   C1A 3281  12.062  17.408   5.270  0.1234  0.2112  0.0141
    1DPPC   C2A 3282  12.073  17.195   4.893 -0.0179  0.0922 -0.0851
    1DPPC   C3A 3283  12.284  17.068   4.588  0.0879  0.0325  0.0389
    1DPPC   C4A 3284  12.076  16.851   4.282 -0.0215 -0.3210 -0.2817
    1DPPC   C1B 3285  12.770  17.042   4.998  0.0663 -0.4085  0.1509
    1DPPC   C2B 3286  12.724  16.813   4.560  0.3617 -0.1968 -0.2058
    1DPPC   C3B 3287  12.837  16.664   4.243 -0.3469 -0.1287 -0.4724
    1DPPC   C4B 3288  12.734  16.371   4.066  0.0320  0.0571  0.2625
    1DPPC   NC3 3289  11.893  13.383   6.304  0.2678  0.0887 -0.0349
    1DPPC   PO4 3290  12.206  13.232   6.233  0.2543  0.0341 -0.2913
    1DPPC   GL1 3291  12.629  13.404   6.022 -0.0776 -0.1851 -0.0385
    1DPPC   GL2 3292  12.578  13.610   5.850 -0.1625 -0.2510  0.5130
    1DPPC   C1A 3293  12.766  13.215   5.640 -0.0344 -0.3193 -0.2747
    1DPPC   C2A 3294  12.696  13.103   5.164 -0.4506  0.1170  0.2223
    1DPPC   C3A 3295  12.919  13.209   4.729  0.0804 -0.2459 -0.2012
    1DPPC   C4A 3296  12.774  13.204   4.239 -0.0405  0.2486 -0.5879
    1DPPC   C1B 3297  12.444  13.943   5.513 -0.2437 -0.1802 -0.0938
    1DPPC   C2B 3298  12.424  13.995   5.062 -0.1186  0.0793  0.0624
    1DPPC   C3B 3299  12.139  14.163   4.829  0.0317  0.2318  0.1030
    1DPPC   C4B 3300  11.711  14.066   4.601 -0.1289 -0.0029  0.2243
    1DPPC   NC3 3301  12.644  15.359   6.265 -0.3702  0.0009 -0.1667
    1DPPC   PO4 3302  12.449  15.015   6.221 -0.0470  0.0609  0.1060
    1DPPC   GL1 3303  12.819  15.002   5.868 -0.0232 -0.0562  0.0626
    1DPPC   GL2 3304  13.160  14.903   5.927 -0.1055 -0.1861 -0.0693
    1DPPC   C1A 3305  13.043  15.239   5.527 -0.2447 -0.1439  0.1557
    1DPPC   C2A 3306  13.143  15.572   5.212 -0.0660  0.0757  0.1148
    1DPPC   C3A 3307  13.033  15.775   4.821 -0.1542  0.2522  0.0770
    1DPPC   C4A 3308  12.823  16.098   4.502 -0.4142 -0.0303  0.1605
    1DPPC   C1B 3309  13.110  14.745   5.525 -0.1873 -0.1279 -0.0514
    1DPPC   C2B 3310  13.127  14.715   5.040 -0.1063  0.0773 -0.1320
    1DPPC   C3B 3311  13.431  14.529   4.710  0.1171 -0.3449  0.2106
    1DPPC   C4B 3312  13.588  14.140   4.583 -0.3200  0.0288  0.0005
    1DPPC   NC3 3313  28.915  18.180   6.451  0.1962 -0.3214  0.1362
    1DPPC   PO4 3314  28.609  17.844   6.342  0.0219  0.2191  0.3839
    1DPPC   GL1 3315  28.243  17.963   5.976 -0.3168  0.0662  0.1777
    1DPPC   GL2 3316  28.297  17.786   5.649  0.0269  0.1688  0.0586
    1DPPC   C1A 3317  27.977  18.123   5.637  0.2239  0.1860 -0.2593
    1DPPC   C2A 3318  28.016  18.151   5.234 -0.0665  0.0544 -0.0054
    1DPPC   C3A 3319  27.607  18.077   4.982 -0.0771  0.2529  0.2627
    1DPPC   C4A 3320  27.140  18.083   4.810 -0.0457  0.2367 -0.2383
    1DPPC   C1B 3321  27.901  17.588   5.427 -0.1564 -0.3478  0.0231
    1DPPC   C2B 3322  27.778  17.616   5.018 -0.0175 -0.1277  0.2489
    1DPPC   C3B 3323  27.639  17.329   4.723  0.1447  0.0827 -0.1834
    1DPPC   C4B 3324  27.404  17.089   4.461  0.2299 -0.2207 -0.2259
    1DPPC   NC3 3325  23.259  13.159   7.217  0.2333 -0.0609 -0.0639
    1DPPC   PO4 3326  23.177  13.021   6.780  0.3946  0.1872  0.0830
    1DPPC   GL1 3327  23.183  12.938   6.329 -0.2133  0.0121  0.0772
    1DPPC   GL2 3328  23.156  12.642   6.316 -0.1780  0.1144  0.0325
    1DPPC   C1A 3329  23.402  12.952   5.958 -0.1663  0.1676  0.1397
    1DPPC   C2A 3330  23.404  12.942   5.527  0.0986 -0.0365  0.2188
    1DPPC   C3A 3331  23.364  12.829   5.162 -0.1240 -0.0137  0.1336
    1DPPC   C4A 3332  23.505  12.682   4.781  0.1596  0.2653  0.0752
    1DPPC   C1B 3333  22.969  12.712   5.926 -0.0824  0.3104  0.2194
    1DPPC   C2B 3334  22.896  12.726   5.487  0.0771 -0.1148  0.1150
    1DPPC   C3B 3335  22.837  12.704   4.995  0.0214  0.1004 -0.1393
    1DPPC   C4B 3336  22.589  12.655   4.623  0.1699  0.3044  0.2180
    1DPPC   NC3 3337  19.662  14.862   6.982 -0.0398  0.2499 -0.0568
    1DPPC   PO4 3338  19.491  14.851   6.562 -0.2761  0.1140 -0.1310
    1DPPC   GL1 3339  19.052  14.616   6.414  0.1773  0.0897  0.0784
    1DPPC   GL2 3340  18.973  14.887   6.282 -0.4714 -0.2111 -0.1220
    1DPPC   C1A 3341  18.946  14.239   6.038 -0.3724 -0.2440 -0.1703
    1DPPC   C2A 3342  18.734  14.116   5.657  0.1321 -0.1287 -0.1483
    1DPPC   C3A 3343  18.923  14.089   5.280  0.0516 -0.0718  0.2107
    1DPPC   C4A 3344  19.144  13.835   5.028  0.1203  0.1698 -0.2717
    1DPPC   C1B 3345  18.964  14.735   5.883  0.2609  0.1254  0.0088
    1DPPC   C2B 3346  19.118  14.557   5.455 -0.0883  0.0230  0.1057
    1DPPC   C3B 3347  19.235  14.445   5.077  0.3494  0.0240  0.1610
    1DPPC   C4B 3348  19.113  14.222   4.710 -0.0021  0.2209 -0.0246
    1DPPC   NC3 3349  13.526   6.542   8.575 -0.2160  0.1369  0.0536
    1DPPC   PO4 3350  13.519   6.743   8.175 -0.1270  0.2655 -0.3058
    1DPPC   GL1 3351  13.691   6.677   7.777 -0.0601 -0.0221  0.1174
    1DPPC   GL2 3352  13.582   6.801   7.600 -0.0182 -0.0019 -0.0975
    1DPPC   C1A 3353  13.868   6.368   7.550 -0.1426 -0.1118  0.0028
    1DPPC   C2A 3354  14.045   6.265   7.191  0.0552 -0.1315 -0.1267
    1DPPC   C3A 3355  14.202   6.064   6.929  0.1167 -0.0887  0.2321
    1DPPC   C4A 3356  14.446   6.044   6.588  0.1676  0.0421 -0.2188
    1DPPC   C1B 3357  13.590   6.618   7.240 -0.0103 -0.1614  0.1025
    1DPPC   C2B 3358  13.804   6.605   6.835  0.1579  0.1486 -0.5925
    1DPPC   C3B 3359  13.673   6.657   6.487  0.0423  0.2790  0.1505
    1DPPC   C4B 3360  13.516   6.776   6.057 -0.0046 -0.0976 -0.1757
    1DPPC   NC3 3361   2.297  10.008   6.593  0.0438  0.0534 -0.0181
    1DPPC   PO4 3362   2.665  10.278   6.572  0.0590  0.1184  0.0626
    1DPPC   GL1 3363   2.547  10.039   6.163  0.2264  0.3002 -0.1349
    1DPPC   GL2 3364   2.804   9.837   6.089  0.0902  0.1047 -0.2150
    1DPPC   C1A 3365   2.473  10.159   5.678 -0.2380 -0.0648  0.1890
    1DPPC   C2A 3366   2.501  10.350   5.182  0.1154 -0.3270  0.0759
    1DPPC   C3A 3367   2.562  10.331   4.723  0.0853  0.5755 -0.2893
    1DPPC   C4A 3368   2.255  10.411   4.418  0.0947 -0.0108 -0.1694
    1DPPC   C1B 3369   2.722   9.692   5.705  0.4194  0.0243 -0.0485
    1DPPC   C2B 3370   2.690   9.877   5.212 -0.0533 -0.1341  0.0265
    1DPPC   C3B 3371   2.933  10.058   4.942 -0.1993 -0.3466  0.0344
    1DPPC   C4B 3372   3.041  10.435   4.962 -0.0974  0.0148 -0.0555
    1DPPC   NC3 3373  26.614   9.675   6.993 -0.0356  0.2166  0.3033
    1DPPC   PO4 3374  26.241   9.882   6.879  0.0620 -0.0579  0.0220
    1DPPC   GL1 3375  26.423   9.881   6.567  0.1209 -0.0811 -0.0246
    1DPPC   GL2 3376  26.514   9.611   6.457 -0.0625  0.1996  0.1459
    1DPPC   C1A 3377  26.556  10.137   6.185 -0.0391 -0.1072 -0.4205
    1DPPC   C2A 3378  26.532  10.034   5.781  0.1399 -0.0249  0.0210
    1DPPC   C3A 3379  26.628   9.885   5.420 -0.3134  0.0351 -0.0374
    1DPPC   C4A 3380  26.686   9.692   5.037 -0.1663 -0.0965 -0.0012
    1DPPC   C1B 3381  26.440   9.535   6.019  0.1752  0.0028  0.0224
    1DPPC   C2B 3382  26.435   9.471   5.627 -0.0342  0.1502  0.0726
    1DPPC   C3B 3383  26.249   9.562   5.262  0.2716 -0.1229 -0.1467
    1DPPC   C4B 3384  26.065   9.549   4.874  0.1846  0.3843  0.0524
    1DPPC   NC3 3385  10.266  10.164   7.113 -0.1697 -0.2242 -0.0287
    1DPPC   PO4 3386  10.572  10.121   6.771 -0.0430 -0.0670  0.0845
    1DPPC   GL1 3387  10.715   9.753   6.574  0.0744 -0.2292  0.0382
    1DPPC   GL2 3388  11.044   9.667   6.527  0.1149  0.0920  0.0168
    1DPPC   C1A 3389  10.749   9.732   6.063  0.2069  0.2737  0.1483
    1DPPC   C2A 3390  10.667   9.642   5.575  0.1194  0.1973  0.0689
    1DPPC   C3A 3391  10.677   9.740   5.086 -0.0220 -0.2274 -0.2694
    1DPPC   C4A 3392  10.911   9.840   4.679  0.1583 -0.0902  0.0998
    1DPPC   C1B 3393  11.215   9.810   6.148  0.1249  0.4151 -0.2321
    1DPPC   C2B 3394  11.231   9.714   5.731  0.1709 -0.0522 -0.1711
    1DPPC   C3B 3395  11.058   9.771   5.363 -0.1669  0.2899 -0.0550
    1DPPC   C4B 3396  11.266   9.992   5.042  0.0565  0.0383 -0.0077
    1DPPC   NC3 3397  23.867  12.420   7.311 -0.0906  0.1415  0.1125
    1DPPC   PO4 3398  23.599  12.277   7.025  0.2292 -0.1970  0.0897
    1DPPC   GL1 3399  23.720  12.004   6.710 -0.2187 -0.1721  0.2590
    1DPPC   GL2 3400  23.485  11.762   6.574  0.1984  0.0224  0.4698
    1DPPC   C1A 3401  23.890  12.018   6.369  0.1497  0.2264  0.0349
    1DPPC   C2A 3402  24.180  12.181   6.187  0.1982 -0.0964  0.0577
    1DPPC   C3A 3403  24.074  12.069   5.774  0.0520  0.1859 -0.1974
    1DPPC   C4A 3404  24.151  12.091   5.369  0.0077 -0.2301  0.0856
    1DPPC   C1B 3405  23.446  11.880   6.174  0.0463 -0.1782 -0.1207
    1DPPC   C2B 3406  23.566  11.983   5.782 -0.1055 -0.0806  0.2250
    1DPPC   C3B 3407  23.656  12.012   5.295 -0.2256 -0.5801 -0.2376
    1DPPC   C4B 3408  23.590  11.980   4.863  0.0101  0.4882 -0.1782
    1DPPC   NC3 3409  16.741   9.147   7.581  0.0230  0.1220 -0.1346
    1DPPC   PO4 3410  16.422   8.848   7.503  0.2579  0.1027 -0.0953
    1DPPC   GL1 3411  16.230   8.645   7.230 -0.0793  0.3642 -0.0553
    1DPPC   GL2 3412  16.152   8.332   7.262  0.3552 -0.0199  0.2115
    1DPPC   C1A 3413  16.401   8.612   6.840 -0.0362 -0.0128  0.2814
    1DPPC   C2A 3414  16.642   8.534   6.391 -0.4047  0.0328 -0.0091
    1DPPC   C3A 3415  16.697   8.557   5.958 -0.1367 -0.2409  0.1766
    1DPPC   C4A 3416  16.465   8.714   5.655  0.0762  0.2934  0.0011
    1DPPC   C1B 3417  15.946   8.399   6.892 -0.3754 -0.1556  0.1443
    1DPPC   C2B 3418  15.838   8.274   6.429 -0.0106  0.1533  0.2754
    1DPPC   C3B 3419  15.680   8.153   6.010  0.1639 -0.0982 -0.0263
    1DPPC   C4B 3420  15.427   7.833   5.714  0.1328 -0.0057 -0.2208
    1DPPC   NC3 3421  17.134  13.003   6.926  0.0556  0.1194  0.1286
    1DPPC   PO4 3422  16.699  12.945   7.078  0.2363 -0.1359 -0.0048
    1DPPC   GL1 3423  16.774  12.797   6.628  0.1223 -0.3972 -0.2061
    1DPPC   GL2 3424  16.866  12.486   6.555 -0.0638  0.1240 -0.0504
    1DPPC   C1A 3425  17.025  12.817   6.259  0.1388  0.2818  0.0564
    1DPPC   C2A 3426  16.958  12.993   5.894  0.1824  0.0876 -0.2582
    1DPPC   C3A 3427  17.068  13.100   5.469  0.3430  0.0950  0.1987
    1DPPC   C4A 3428  17.480  13.085   5.286 -0.0529 -0.1798 -0.1870
    1DPPC   C1B 3429  16.615  12.434   6.127  0.2917 -0.1824 -0.0419
    1DPPC   C2B 3430  16.473  12.224   5.752 -0.0071 -0.0375 -0.3027
    1DPPC   C3B 3431  16.516  12.219   5.305 -0.0324 -0.0432 -0.0591
    1DPPC   C4B 3432  16.565  11.947   4.893  0.0270 -0.3021 -0.0441
    1DPPC   NC3 3433   8.258  28.383   6.472 -0.1464 -0.2199 -0.1609
    1DPPC   PO4 3434   8.695  28.226   6.306 -0.5255 -0.0908  0.1662
    1DPPC   GL1 3435   8.449  28.376   5.964  0.0365 -0.0095 -0.0507
    1DPPC   GL2 3436   8.591  28.217   5.632 -0.2560 -0.3019 -0.4626
    1DPPC   C1A 3437   8.226  28.575   5.595 -0.0082 -0.0115 -0.1946
    1DPPC   C2A 3438   8.450  28.712   5.261  0.0250  0.2209  0.1204
    1DPPC   C3A 3439   8.280  28.987   4.929  0.0153  0.1302  0.3324
    1DPPC   C4A 3440   8.125  29.323   4.703 -0.0625  0.4319  0.2229
    1DPPC   C1B 3441   8.868  28.396   5.328 -0.0526  0.1715 -0.0117
    1DPPC   C2B 3442   8.964  28.762   5.055  0.0130  0.3522 -0.0669
    1DPPC   C3B 3443   8.781  29.155   5.092  0.1965  0.1377  0.2159
    1DPPC   C4B 3444   8.559  29.604   5.015 -0.0012  0.1346 -0.0037
    1DPPC   NC3 3445  18.690  10.596   7.852  0.1710 -0.5377  0.1284
    1DPPC   PO4 3446  18.695  10.123   7.662 -0.0791 -0.0808  0.0672
    1DPPC   GL1 3447  18.748  10.099   7.203 -0.0747  0.2992  0.1532
    1DPPC   GL2 3448  18.537   9.866   7.101 -0.3524  0.4780 -0.0365
    1DPPC   C1A 3449  18.846  10.076   6.783 -0.1278 -0.1166 -0.0392
    1DPPC   C2A 3450  18.750   9.882   6.384 -0.2793 -0.0859  0.0542
    1DPPC   C3A 3451  18.608   9.611   6.075  0.0236 -0.0155 -0.2605
    1DPPC   C4A 3452  18.593   9.544   5.576 -0.2700  0.0035  0.0734
    1DPPC   C1B 3453  18.550   9.598   6.721 -0.0206  0.3180  0.0543
    1DPPC   C2B 3454  18.816   9.226   6.664  0.0048  0.2572  0.2865
    1DPPC   C3B 3455  18.729   9.089   6.175 -0.3840 -0.0689 -0.0614
    1DPPC   C4B 3456  18.746   8.699   5.843 -0.0885 -0.1623 -0.1426
    1DPPC   NC3 3457  20.322  14.786   6.563 -0.0584 -0.2773  0.2262
    1DPPC   PO4 3458  20.379  15.124   6.374 -0.2071 -0.0803 -0.1413
    1DPPC   GL1 3459  20.321  14.879   6.060 -0.2464  0.0520 -0.0312
    1DPPC   GL2 3460  20.467  14.581   6.100 -0.1161  0.1421 -0.0899
    1DPPC   C1A 3461  20.259  15.007   5.647  0.1273  0.0384 -0.0411
    1DPPC   C2A 3462  19.938  14.750   5.379 -0.0039  0.1134 -0.0232
    1DPPC   C3A 3463  19.684  14.535   5.225 -0.3676 -0.3980 -0.0639
    1DPPC   C4A 3464  19.553  14.563   4.741  0.0417  0.1399  0.3917
    1DPPC   C1B 3465  20.498  14.530   5.639  0.1680  0.2046  0.1961
    1DPPC   C2B 3466  20.547  14.583   5.331 -0.1869 -0.1968  0.1267
    1DPPC   C3B 3467  20.420  14.448   4.974  0.2459  0.1035 -0.1509
    1DPPC   C4B 3468  20.057  14.585   4.880 -0.0007 -0.0641  0.0994
    1DPPC   NC3 3469  15.783  13.752   7.326  0.1973 -0.6580  0.0284
    1DPPC   PO4 3470  16.047  14.109   7.121  0.1442  0.1073 -0.1061
    1DPPC   GL1 3471  16.270  13.990   6.703  0.1952  0.1139  0.2000
    1DPPC   GL2 3472  16.322  14.182   6.488  0.0618 -0.4077  0.2230
    1DPPC   C1A 3473  16.206  13.806   6.235 -0.2549  0.0118  0.1321
    1DPPC   C2A 3474  16.327  13.753   5.803  0.3931 -0.2785  0.1876
    1DPPC   C3A 3475  16.572  13.802   5.543 -0.0873  0.1638  0.0199
    1DPPC   C4A 3476  16.672  14.095   5.255  0.0829 -0.2238 -0.1847
    1DPPC   C1B 3477  16.353  14.232   6.044  0.1139  0.2882  0.1549
    1DPPC   C2B 3478  16.277  14.275   5.533  0.2007 -0.2095  0.1196
    1DPPC   C3B 3479  16.171  14.374   5.117 -0.0600  0.0963 -0.2461
    1DPPC   C4B 3480  16.336  14.163   4.774  0.0024 -0.1776 -0.0047
    1DPPC   NC3 3481  17.275   7.680   7.731  0.1694 -0.2516 -0.3307
    1DPPC   PO4 3482  17.280   7.308   8.075  0.1255 -0.0584  0.0223
    1DPPC   GL1 3483  17.218   7.230   7.614 -0.0041  0.1069 -0.2250
    1DPPC   GL2 3484  17.371   7.007   7.454  0.0942 -0.2830  0.1181
    1DPPC   C1A 3485  16.957   7.365   7.231 -0.0641 -0.1424 -0.2929
    1DPPC   C2A 3486  16.862   7.239   6.858 -0.1300 -0.1534  0.2399
    1DPPC   C3A 3487  16.759   7.203   6.416 -0.2988  0.1698  0.1636
    1DPPC   C4A 3488  16.718   7.316   6.028  0.3158 -0.1057 -0.2825
    1DPPC   C1B 3489  17.372   7.114   7.097 -0.0460 -0.1808 -0.0356
    1DPPC   C2B 3490  17.385   7.378   6.725  0.0366 -0.1859 -0.0850
    1DPPC   C3B 3491  17.549   7.559   6.345  0.0088  0.0352  0.0007
    1DPPC   C4B 3492  17.817   7.780   5.976 -0.0917  0.3091 -0.0233
    1DPPC   NC3 3493  24.236   8.493   7.501 -0.0327 -0.1832  0.0833
    1DPPC   PO4 3494  24.602   8.797   7.272  0.0091  0.1071  0.2444
    1DPPC   GL1 3495  24.519   8.513   7.001  0.0882  0.0577 -0.0768
    1DPPC   GL2 3496  24.389   8.778   6.807 -0.1094  0.0231  0.1419
    1DPPC   C1A 3497  24.559   8.338   6.545  0.2589 -0.3204 -0.4641
    1DPPC   C2A 3498  24.512   8.134   6.198  0.0030  0.0215  0.0684
    1DPPC   C3A 3499  24.341   8.007   5.720 -0.0039 -0.1002  0.1498
    1DPPC   C4A 3500  23.947   8.141   5.733 -0.0195  0.0768 -0.1586
    1DPPC   C1B 3501  24.252   8.719   6.325 -0.0371 -0.1156 -0.0959
    1DPPC   C2B 3502  24.177   8.549   5.913 -0.1805 -0.5862 -0.0642
    1DPPC   C3B 3503  24.227   8.580   5.468  0.0871  0.0141  0.0586
    1DPPC   C4B 3504  24.126   8.241   5.215  0.1198 -0.0726  0.0543
    1DPPC   NC3 3505  25.215   2.859   7.095  0.0730  0.0274  0.1310
    1DPPC   PO4 3506  25.425   2.510   6.872  0.1764 -0.0919 -0.1550
    1DPPC   GL1 3507  25.010   2.504   6.696  0.2392 -0.0304 -0.0574
    1DPPC   GL2 3508  24.761   2.803   6.660  0.2039 -0.0951 -0.1147
    1DPPC   C1A 3509  24.841   2.319   6.444  0.3832  0.0061  0.2317
    1DPPC   C2A 3510  24.771   1.945   6.216 -0.0312 -0.0486  0.1886
    1DPPC   C3A 3511  24.550   1.522   6.177 -0.0598 -0.1080 -0.0617
    1DPPC   C4A 3512  24.377   1.342   5.691 -0.3031 -0.0259 -0.0599
    1DPPC   C1B 3513  24.739   2.865   6.289 -0.0193  0.0006  0.0824
    1DPPC   C2B 3514  24.562   2.795   5.896 -0.3674  0.0297 -0.1932
    1DPPC   C3B 3515  24.649   2.645   5.500  0.0885 -0.1034  0.1267
    1DPPC   C4B 3516  24.896   2.300   5.384 -0.2573  0.1735  0.0615
    1DPPC   NC3 3517  21.877   6.904   7.941  0.0103 -0.1433 -0.0317
    1DPPC   PO4 3518  22.274   6.634   7.845 -0.1264  0.1856 -0.0056
    1DPPC   GL1 3519  22.423   6.383   7.482  0.2612 -0.0385 -0.0141
    1DPPC   GL2 3520  22.681   6.547   7.325 -0.1855  0.1099  0.2179
    1DPPC   C1A 3521  22.273   6.004   7.199 -0.1809 -0.0695  0.1925
    1DPPC   C2A 3522  22.089   5.855   6.869  0.1516 -0.1993 -0.1209
    1DPPC   C3A 3523  22.032   5.839   6.419  0.6451  0.0357 -0.0186
    1DPPC   C4A 3524  21.788   5.905   6.079 -0.0173  0.1152  0.1363
    1DPPC   C1B 3525  22.917   6.695   6.895  0.0704  0.4532  0.2384
    1DPPC   C2B 3526  22.933   6.877   6.581 -0.0637  0.0640  0.1011
    1DPPC   C3B 3527  22.866   6.989   6.201  0.1131 -0.0450  0.2805
    1DPPC   C4B 3528  23.102   7.203   5.912 -0.1285 -0.1860 -0.0946
    1DPPC   NC3 3529  23.617  11.531   6.958 -0.0064 -0.0256  0.2065
    1DPPC   PO4 3530  23.986  11.627   7.034  0.0115 -0.0903 -0.0535
    1DPPC   GL1 3531  23.895  11.469   6.547  0.1954 -0.3142  0.0740
    1DPPC   GL2 3532  24.023  11.201   6.483 -0.1572 -0.4633 -0.0239
    1DPPC   C1A 3533  23.878  11.635   6.056 -0.0126  0.4261 -0.1876
    1DPPC   C2A 3534  23.880  11.643   5.604 -0.0026 -0.0607 -0.1272
    1DPPC   C3A 3535  23.987  11.683   5.098  0.2490  0.0775 -0.1867
    1DPPC   C4A 3536  24.240  12.021   4.839  0.0339 -0.0590 -0.0903
    1DPPC   C1B 3537  23.961  11.127   6.010  0.2368 -0.1771 -0.0552
    1DPPC   C2B 3538  23.941  11.194   5.608 -0.3699  0.3277 -0.1030
    1DPPC   C3B 3539  24.067  11.211   5.168  0.2009 -0.0814 -0.0234
    1DPPC   C4B 3540  24.386  11.466   4.858 -0.2000  0.0001 -0.2497
    1DPPC   NC3 3541  17.669  21.087   5.495  0.0045 -0.1636  0.0882
    1DPPC   PO4 3542  17.850  21.428   5.645  0.3338 -0.2833  0.1801
    1DPPC   GL1 3543  17.939  21.391   5.178 -0.1700  0.0129 -0.0037
    1DPPC   GL2 3544  18.204  21.523   5.009 -0.0219  0.0655  0.4042
    1DPPC   C1A 3545  17.789  21.473   4.729  0.0966 -0.1558 -0.2095
    1DPPC   C2A 3546  17.795  21.519   4.214  0.0266 -0.0081  0.1083
    1DPPC   C3A 3547  17.815  21.634   3.847 -0.0339  0.0864  0.1966
    1DPPC   C4A 3548  18.096  21.573   3.618  0.0245  0.1182  0.1015
    1DPPC   C1B 3549  18.624  21.526   4.829 -0.2695 -0.1472  0.1828
    1DPPC   C2B 3550  18.950  21.366   4.509  0.0346 -0.1152  0.0650
    1DPPC   C3B 3551  19.138  20.986   4.214  0.2329 -0.1092  0.0365
    1DPPC   C4B 3552  19.133  20.649   3.990 -0.2707  0.2800 -0.1094
    1DPPC   NC3 3553  23.589  29.257   7.118  0.1785 -0.0955 -0.0560
    1DPPC   PO4 3554  23.893  29.066   6.984  0.1106  0.1532  0.1837
    1DPPC   GL1 3555  23.970  29.311   6.636  0.0257 -0.1073 -0.0336
    1DPPC   GL2 3556  24.313  29.553   6.578  0.3214  0.0052 -0.1780
    1DPPC   C1A 3557  23.907  29.584   6.312  0.0702 -0.4245 -0.2166
    1DPPC   C2A 3558  23.877  29.681   5.793 -0.2719  0.2438  0.0524
    1DPPC   C3A 3559  23.730   0.030   5.429 -0.1281  0.2725  0.3365
    1DPPC   C4A 3560  23.437   0.065   5.087  0.0296  0.0938  0.1128
    1DPPC   C1B 3561  24.334  29.207   6.374 -0.3331  0.0240  0.3942
    1DPPC   C2B 3562  24.179  29.125   5.974 -0.1703 -0.1854  0.1627
    1DPPC   C3B 3563  24.168  29.310   5.624  0.1159 -0.2965  0.1273
    1DPPC   C4B 3564  24.399  29.505   5.239  0.2293  0.2550 -0.2737
    1DPPC   NC3 3565   2.111  22.860   6.425  0.0056 -0.1637 -0.1048
    1DPPC   PO4 3566   1.764  22.711   6.499  0.2208  0.0582 -0.1291
    1DPPC   GL1 3567   1.612  22.868   6.134 -0.2179  0.0868 -0.1361
    1DPPC   GL2 3568   1.857  22.968   5.999  0.1269  0.0663  0.2698
    1DPPC   C1A 3569   1.479  22.668   5.810  0.1647  0.0265 -0.0776
    1DPPC   C2A 3570   1.458  22.451   5.425 -0.0997  0.2193  0.0090
    1DPPC   C3A 3571   1.616  22.469   5.091 -0.0511  0.0053  0.0292
    1DPPC   C4A 3572   2.003  22.355   4.771 -0.0610 -0.0068 -0.2926
    1DPPC   C1B 3573   1.970  22.697   5.583  0.0200 -0.2634 -0.1921
    1DPPC   C2B 3574   2.061  22.695   5.216 -0.2534 -0.1783 -0.2190
    1DPPC   C3B 3575   2.246  22.844   4.802  0.1526  0.1349  0.0542
    1DPPC   C4B 3576   2.629  22.922   4.468  0.0173 -0.2699 -0.1833
    1DPPC   NC3 3577  12.853  11.580   7.240 -0.0131  0.0493  0.1886
    1DPPC   PO4 3578  12.955  11.640   6.797 -0.2588  0.0943  0.2319
    1DPPC   GL1 3579  13.057  11.680   6.375  0.1376  0.0550  0.1207
    1DPPC   GL2 3580  13.380  11.624   6.319 -0.0219 -0.0016 -0.2448
    1DPPC   C1A 3581  13.033  11.712   6.003 -0.1699 -0.2563 -0.0740
    1DPPC   C2A 3582  12.926  11.573   5.559 -0.1458  0.2014 -0.0276
    1DPPC   C3A 3583  13.079  11.673   5.248 -0.3874 -0.0048 -0.0616
    1DPPC   C4A 3584  12.830  11.907   4.916 -0.5270 -0.3212  0.1669
    1DPPC   C1B 3585  13.469  11.496   5.837 -0.2922 -0.2520 -0.0839
    1DPPC   C2B 3586  13.517  11.515   5.368 -0.1577  0.0208 -0.0881
    1DPPC   C3B 3587  13.614  11.483   4.880  0.0587 -0.0179  0.0270
    1DPPC   C4B 3588  13.743  11.448   4.414 -0.4164  0.1639 -0.0460
    1DPPC   NC3 3589  14.703  20.543   5.264 -0.1296  0.2210  0.1005
    1DPPC   PO4 3590  14.348  20.708   5.377 -0.0068 -0.2648  0.1168
    1DPPC   GL1 3591  14.431  20.863   4.995 -0.2388 -0.1605  0.2563
    1DPPC   GL2 3592  14.159  21.038   5.073  0.1579  0.4390  0.0328
    1DPPC   C1A 3593  14.386  21.067   4.582  0.2149 -0.0803 -0.3824
    1DPPC   C2A 3594  14.549  21.262   4.183 -0.2505 -0.0809 -0.2170
    1DPPC   C3A 3595  14.481  21.075   3.816  0.1923  0.0543 -0.1415
    1DPPC   C4A 3596  14.688  20.704   3.669 -0.0869 -0.0612 -0.2263
    1DPPC   C1B 3597  14.050  20.725   4.667  0.0187  0.1546 -0.1332
    1DPPC   C2B 3598  14.110  20.369   4.421  0.0650 -0.1937  0.3973
    1DPPC   C3B 3599  13.930  20.084   4.007  0.1780 -0.3254 -0.2783
    1DPPC   C4B 3600  14.095  20.009   3.641 -0.3703  0.2157  0.2173
    1DPPC   NC3 3601  23.161  12.011   6.917 -0.4964 -0.1121 -0.0653
    1DPPC   PO4 3602  22.745  11.790   6.693  0.1371 -0.0916 -0.3838
    1DPPC   GL1 3603  22.800  12.142   6.504  0.2996  0.1258  0.0385
    1DPPC   GL2 3604  23.136  12.139   6.444  0.1541  0.3935 -0.1258
    1DPPC   C1A 3605  22.675  12.277   6.142 -0.2635  0.0559  0.0839
    1DPPC   C2A 3606  22.751  12.231   5.698 -0.0923 -0.0931  0.0142
    1DPPC   C3A 3607  22.575  12.366   5.261 -0.0660  0.0320 -0.1917
    1DPPC   C4A 3608  22.214  12.418   4.935  0.3585  0.0315 -0.0975
    1DPPC   C1B 3609  23.165  12.280   5.987  0.2013  0.0322 -0.0757
    1DPPC   C2B 3610  23.193  12.358   5.564 -0.3839 -0.3405  0.0918
    1DPPC   C3B 3611  23.075  12.335   5.137  0.1183  0.0199 -0.0041
    1DPPC   C4B 3612  23.105  12.310   4.689 -0.0627  0.0585 -0.0992
    1DPPC   NC3 3613  25.219  10.130   7.198 -0.2758 -0.1340 -0.3051
    1DPPC   PO4 3614  24.856  10.195   6.900 -0.0483 -0.0556 -0.0317
    1DPPC   GL1 3615  24.883  10.263   6.456  0.2592  0.1093  0.0349
    1DPPC   GL2 3616  25.023   9.983   6.374 -0.3061  0.0069  0.4001
    1DPPC   C1A 3617  24.759  10.245   6.047 -0.0186 -0.0187  0.4126
    1DPPC   C2A 3618  24.706  10.241   5.588  0.0115  0.0260  0.0277
    1DPPC   C3A 3619  24.643  10.400   5.200 -0.0297 -0.4719  0.1298
    1DPPC   C4A 3620  24.504  10.314   4.812  0.0327 -0.0442  0.0784
    1DPPC   C1B 3621  25.127   9.925   5.956  0.0156 -0.0100  0.0576
    1DPPC   C2B 3622  25.075   9.880   5.535  0.1888 -0.1498  0.4174
    1DPPC   C3B 3623  24.993  10.039   5.172  0.2363  0.1123 -0.1552
    1DPPC   C4B 3624  24.985  10.230   4.674  0.0661 -0.1822 -0.0620
    1DPPC   NC3 3625   9.593   9.361   7.092  0.0005  0.1559 -0.3051
    1DPPC   PO4 3626   9.975   9.442   6.860 -0.0097 -0.1397  0.3528
    1DPPC   GL1 3627  10.004   9.527   6.387 -0.1254 -0.1247  0.2555
    1DPPC   GL2 3628  10.287   9.629   6.308  0.3275 -0.0813  0.0662
    1DPPC   C1A 3629   9.769   9.564   5.996  0.1271 -0.0292 -0.0739
    1DPPC   C2A 3630   9.708   9.400   5.582  0.0303 -0.1458 -0.1831
    1DPPC   C3A 3631   9.773   9.280   5.114  0.1050 -0.0758  0.1997
    1DPPC   C4A 3632   9.794   9.062   4.732  0.1258  0.2451  0.0010
    1DPPC   C1B 3633  10.382   9.343   5.887  0.3104  0.0187  0.3244
    1DPPC   C2B 3634  10.644   9.110   5.487  0.1755 -0.0348 -0.0667
    1DPPC   C3B 3635  10.743   8.907   5.149 -0.3072 -0.1383 -0.0464
    1DPPC   C4B 3636  10.496   8.596   4.995  0.0662 -0.3410  0.1155
    1DPPC   NC3 3637  27.145   6.229   6.605 -0.0698 -0.0156  0.1261
    1DPPC   PO4 3638  26.898   6.566   6.840 -0.2767  0.3533  0.0194
    1DPPC   GL1 3639  26.598   6.735   6.562  0.3398  0.0596  0.2980
    1DPPC   GL2 3640  26.391   7.021   6.590  0.1032 -0.2116 -0.1379
    1DPPC   C1A 3641  26.565   6.937   6.105  0.4480  0.0418 -0.3305
    1DPPC   C2A 3642  26.671   7.110   5.608  0.1065  0.2512 -0.1496
    1DPPC   C3A 3643  26.461   7.131   5.273 -0.0343  0.0093  0.2795
    1DPPC   C4A 3644  26.280   7.369   4.894 -0.0883  0.1412 -0.1272
    1DPPC   C1B 3645  26.009   6.983   6.326  0.0893  0.1428 -0.1806
    1DPPC   C2B 3646  25.809   6.740   5.942 -0.0986  0.0323  0.0412
    1DPPC   C3B 3647  25.732   6.648   5.585 -0.2861 -0.0117  0.0331
    1DPPC   C4B 3648  25.544   6.406   5.272  0.3030 -0.1920  0.2315
    1DIPC   NC3 3649  19.685  24.532   5.595  0.0764  0.2364  0.1254
    1DIPC   PO4 3650  20.033  24.790   5.597  0.0209  0.0989  0.1087
    1DIPC   GL1 3651  20.039  24.773   5.183 -0.2330 -0.1518 -0.3417
    1DIPC   GL2 3652  20.043  24.978   4.945 -0.1574 -0.2079 -0.1676
    1DIPC   C1A 3653  19.928  24.427   4.978 -0.2375  0.5729  0.0150
    1DIPC   D2A 3654  20.044  23.979   4.772 -0.0975  0.2093  0.0227
    1DIPC   D3A 3655  20.079  24.323   4.535 -0.1342 -0.2511 -0.0193
    1DIPC   C4A 3656  19.721  24.287   4.328 -0.0207  0.0828  0.1966
    1DIPC   C1B 3657  19.753  25.074   4.628 -0.2154 -0.0688 -0.2729
    1DIPC   D2B 3658  19.712  25.511   4.512 -0.1699 -0.3185 -0.1809
    1DIPC   D3B 3659  19.526  25.465   4.093  0.0062 -0.1836 -0.2237
    1DIPC   C4B 3660  19.593  25.096   3.782 -0.0045  0.2708 -0.0429
    1DIPC   NC3 3661  14.917  28.416   6.636 -0.1405  0.0046  0.2720
    1DIPC   PO4 3662  15.300  28.121   6.701 -0.3240  0.1416 -0.0002
    1DIPC   GL1 3663  15.292  27.989   6.291 -0.1828 -0.0527  0.3369
    1DIPC   GL2 3664  15.579  27.851   6.070 -0.1519 -0.4595  0.3859
    1DIPC   C1A 3665  15.085  28.138   5.947  0.2089 -0.0073  0.1244
    1DIPC   D2A 3666  15.129  27.915   5.553  0.1128  0.0109 -0.1030
    1DIPC   D3A 3667  15.030  27.437   5.383 -0.0236 -0.2439  0.0249
    1DIPC   C4A 3668  14.781  27.346   5.057 -0.1991  0.2335  0.1566
    1DIPC   C1B 3669  15.833  28.044   5.782  0.0370  0.0698  0.2387
    1DIPC   D2B 3670  15.961  27.903   5.392  0.2611 -0.1627  0.2332
    1DIPC   D3B 3671  16.075  28.329   5.035 -0.0662  0.2301  0.2087
    1DIPC   C4B 3672  16.548  28.283   4.910 -0.1684 -0.0286 -0.1101
    1DIPC   NC3 3673  14.157  19.608   5.666  0.0060 -0.0666  0.0804
    1DIPC   PO4 3674  13.765  19.588   5.804 -0.4126 -0.4101  0.1514
    1DIPC   GL1 3675  13.744  19.629   5.355 -0.1903 -0.1743 -0.2068
    1DIPC   GL2 3676  13.925  19.856   5.322  0.1004  0.0064 -0.0240
    1DIPC   C1A 3677  13.568  19.603   5.023  0.0497  0.1528 -0.0408
    1DIPC   D2A 3678  13.451  19.353   4.727 -0.1290 -0.3358  0.0290
    1DIPC   D3A 3679  13.592  19.192   4.276 -0.0902 -0.3519 -0.1024
    1DIPC   C4A 3680  13.354  19.365   3.977  0.0846  0.3356  0.0085
    1DIPC   C1B 3681  14.024  19.783   4.870 -0.0682  0.3570  0.3352
    1DIPC   D2B 3682  14.197  19.877   4.505 -0.0154 -0.0826  0.2611
    1DIPC   D3B 3683  14.099  19.611   4.316 -0.2738  0.2999  0.3731
    1DIPC   C4B 3684  14.400  19.808   4.057  0.0901 -0.0832  0.1915
    1DIPC   NC3 3685  23.683  25.342   6.570  0.1121  0.0174  0.1380
    1DIPC   PO4 3686  23.619  24.928   6.548 -0.3146  0.2489  0.1447
    1DIPC   GL1 3687  23.508  24.992   6.126 -0.1645 -0.1552  0.1371
    1DIPC   GL2 3688  23.449  25.278   6.068  0.0244 -0.2266  0.1801
    1DIPC   C1A 3689  23.540  24.798   5.703 -0.0702  0.1548  0.1678
    1DIPC   D2A 3690  23.532  24.466   5.483 -0.0180 -0.1552  0.0275
    1DIPC   D3A 3691  23.887  24.232   5.378  0.1591 -0.0473 -0.2027
    1DIPC   C4A 3692  24.096  24.069   5.074  0.0793 -0.3394  0.0530
    1DIPC   C1B 3693  23.481  25.563   5.633 -0.0294 -0.3133 -0.1299
    1DIPC   D2B 3694  23.342  25.744   5.344 -0.1981  0.1373  0.0253
    1DIPC   D3B 3695  23.383  25.572   4.952  0.4873  0.0121  0.3517
    1DIPC   C4B 3696  23.666  25.634   4.750 -0.0294 -0.1351  0.0418
    1DIPC   NC3 3697   5.785  18.505   6.529 -0.2682 -0.0307  0.1726
    1DIPC   PO4 3698   6.024  18.884   6.463  0.0814 -0.1385 -0.1696
    1DIPC   GL1 3699   5.883  18.879   6.085  0.0360  0.2071  0.3515
    1DIPC   GL2 3700   6.277  19.030   6.000  0.0067 -0.0943  0.0151
    1DIPC   C1A 3701   5.938  18.659   5.699  0.1261 -0.1967 -0.2026
    1DIPC   D2A 3702   5.790  18.357   5.436  0.3135  0.0676  0.1274
    1DIPC   D3A 3703   5.764  18.272   4.990  0.0807  0.1805 -0.3786
    1DIPC   C4A 3704   5.441  18.018   4.753 -0.1966 -0.0640  0.2689
    1DIPC   C1B 3705   6.269  19.056   5.559  0.0259  0.3521  0.1584
    1DIPC   D2B 3706   6.317  19.339   5.368 -0.0048  0.4536  0.2163
    1DIPC   D3B 3707   6.014  19.304   4.957 -0.1917 -0.2233 -0.0320
    1DIPC   C4B 3708   5.698  19.608   4.866  0.2488 -0.0180 -0.1213
    1DIPC   NC3 3709  29.512  18.928   6.205 -0.2018  0.0402  0.0494
    1DIPC   PO4 3710  29.684  19.287   6.148 -0.0058 -0.1920  0.1547
    1DIPC   GL1 3711  29.521  19.254   5.777 -0.0071 -0.1473 -0.2253
    1DIPC   GL2 3712  29.330  19.446   5.741 -0.0573 -0.1757  0.1766
    1DIPC   C1A 3713  29.550  19.337   5.261 -0.2642 -0.1672 -0.1367
    1DIPC   D2A 3714  29.572  19.430   4.816 -0.3557 -0.0512  0.3554
    1DIPC   D3A 3715  29.203  19.702   4.899 -0.0166  0.1778 -0.3520
    1DIPC   C4A 3716  28.923  19.713   4.573 -0.1257  0.0158 -0.2412
    1DIPC   C1B 3717  29.121  19.599   5.345 -0.0121 -0.2142 -0.0565
    1DIPC   D2B 3718  28.751  19.485   5.121 -0.1641  0.0967 -0.0834
    1DIPC   D3B 3719  28.597  19.187   4.916 -0.1221 -0.0964 -0.1484
    1DIPC   C4B 3720  28.216  19.052   5.057  0.0989 -0.2165 -0.0121
    1DIPC   NC3 3721   8.421  23.333   5.211  0.4642  0.0403  0.1427
    1DIPC   PO4 3722   8.789  23.227   5.398  0.0608 -0.0515 -0.0138
    1DIPC   GL1 3723   8.972  23.251   5.057  0.1136  0.2041  0.0254
    1DIPC   GL2 3724   8.942  23.557   4.878  0.3110  0.0231 -0.1088
    1DIPC   C1A 3725   8.742  23.112   4.625 -0.5540  0.2456 -0.0382
    1DIPC   D2A 3726   8.627  22.771   4.377 -0.0994  0.1032 -0.0258
    1DIPC   D3A 3727   8.664  22.646   3.945  0.1296  0.0803  0.0636
    1DIPC   C4A 3728   8.362  22.241   3.884 -0.0072  0.1995  0.1497
    1DIPC   C1B 3729   8.935  23.549   4.416  0.2891 -0.0923  0.0104
    1DIPC   D2B 3730   8.935  23.841   4.124 -0.1985  0.0197 -0.0670
    1DIPC   D3B 3731   8.927  23.474   3.913 -0.0199  0.0793  0.1927
    1DIPC   C4B 3732   8.604  23.108   4.076 -0.2331  0.1602 -0.2376
    1DIPC   NC3 3733   8.208   1.215   6.792 -0.2121  0.0449 -0.1771
    1DIPC   PO4 3734   7.827   0.885   6.622 -0.3527 -0.2204 -0.0915
    1DIPC   GL1 3735   7.811   1.094   6.293  0.2121  0.0937 -0.3166
    1DIPC   GL2 3736   7.673   1.365   6.546  0.0409  0.4056  0.1731
    1DIPC   C1A 3737   7.780   1.381   5.960 -0.1580 -0.0065  0.1536
    1DIPC   D2A 3738   7.751   1.499   5.509  0.3854  0.2317 -0.2673
    1DIPC   D3A 3739   8.078   1.514   5.147 -0.1337  0.1155  0.0976
    1DIPC   C4A 3740   8.352   1.761   4.973  0.0168 -0.0323  0.1143
    1DIPC   C1B 3741   7.363   1.253   6.210  0.2901 -0.3491 -0.0084
    1DIPC   D2B 3742   7.341   1.383   5.853 -0.1593 -0.2830 -0.1459
    1DIPC   D3B 3743   6.974   1.558   5.857  0.0907 -0.2402  0.0726
    1DIPC   C4B 3744   6.643   1.679   6.017  0.2097 -0.1324 -0.0892
    1DIPC   NC3 3745  18.528   4.034   8.464  0.1581 -0.2488  0.1721
    1DIPC   PO4 3746  18.694   3.565   8.150 -0.1216 -0.2318 -0.0064
    1DIPC   GL1 3747  18.445   3.421   7.807  0.2685 -0.1708 -0.0061
    1DIPC   GL2 3748  18.432   3.661   7.572 -0.2270  0.0073 -0.0508
    1DIPC   C1A 3749  18.204   3.150   7.605 -0.1566 -0.2976  0.0864
    1DIPC   D2A 3750  17.726   3.092   7.551  0.2139 -0.1052 -0.2695
    1DIPC   D3A 3751  17.485   2.786   7.555 -0.0961  0.0357 -0.0535
    1DIPC   C4A 3752  17.563   2.620   7.132  0.1481  0.1235 -0.0207
    1DIPC   C1B 3753  18.288   3.798   7.304  0.1331  0.0310  0.3653
    1DIPC   D2B 3754  18.159   3.949   6.883  0.4926  0.1562  0.1414
    1DIPC   D3B 3755  17.995   3.530   6.818  0.0897  0.2842 -0.0322
    1DIPC   C4B 3756  17.999   3.227   6.401 -0.1154  0.2859  0.3511
    1DIPC   NC3 3757   3.929  28.420   6.085  0.0462 -0.0128 -0.2081
    1DIPC   PO4 3758   4.347  28.576   6.140  0.3200 -0.3058  0.1299
    1DIPC   GL1 3759   4.346  28.397   5.645  0.0701 -0.3273  0.2072
    1DIPC   GL2 3760   4.551  28.561   5.535 -0.3135 -0.0431 -0.0648
    1DIPC   C1A 3761   4.203  28.371   5.159 -0.4090  0.1464 -0.0058
    1DIPC   D2A 3762   4.069  28.400   4.722 -0.1738 -0.1510  0.1280
    1DIPC   D3A 3763   4.402  28.482   4.490 -0.1574  0.1246 -0.0772
    1DIPC   C4A 3764   4.481  28.309   4.073  0.2169  0.1429  0.2255
    1DIPC   C1B 3765   4.379  28.867   5.138  0.3493 -0.0478 -0.0737
    1DIPC   D2B 3766   4.507  29.013   4.760  0.3288  0.0925 -0.0890
    1DIPC   D3B 3767   4.504  29.310   4.448 -0.0202  0.2538  0.0082
    1DIPC   C4B 3768   4.683  29.112   4.096 -0.0256  0.1528 -0.2107
    1DIPC   NC3 3769  14.002  26.218   6.613  0.0750 -0.0021 -0.2505
    1DIPC   PO4 3770  13.855  26.306   6.072 -0.3169  0.4366 -0.0418
    1DIPC   GL1 3771  13.428  26.318   5.945  0.0711 -0.0963  0.2199
    1DIPC   GL2 3772  13.219  26.609   5.847 -0.2891  0.0448  0.1157
    1DIPC   C1A 3773  13.286  26.219   5.589 -0.1059  0.1035  0.2729
    1DIPC   D2A 3774  13.273  26.180   5.150 -0.1222  0.4787  0.3457
    1DIPC   D3A 3775  13.453  25.775   5.305  0.1870 -0.1140  0.0041
    1DIPC   C4A 3776  13.516  25.233   5.213  0.0954  0.0137  0.0572
    1DIPC   C1B 3777  13.364  26.725   5.385 -0.3205 -0.2436 -0.1484
    1DIPC   D2B 3778  13.567  27.159   5.324  0.1163  0.0038  0.1702
    1DIPC   D3B 3779  13.472  27.021   4.943  0.1067 -0.0252  0.1901
    1DIPC   C4B 3780  13.205  26.841   4.907 -0.0962  0.0382  0.2288
    1DIPC   NC3 3781  20.206   6.323   8.099  0.0521  0.0580 -0.2687
    1DIPC   PO4 3782  20.250   6.228   7.757 -0.0789 -0.0999  0.0382
    1DIPC   GL1 3783  20.220   6.056   7.340  0.0956 -0.1396 -0.1924
    1DIPC   GL2 3784  20.209   5.788   7.311 -0.0903 -0.0901  0.1470
    1DIPC   C1A 3785  20.328   6.157   6.858 -0.0391 -0.2399  0.1932
    1DIPC   D2A 3786  20.613   5.962   6.583 -0.1115  0.1025  0.2331
    1DIPC   D3A 3787  20.367   6.010   6.271  0.0795  0.1759  0.1667
    1DIPC   C4A 3788  20.052   6.143   6.017  0.0362 -0.0340  0.0322
    1DIPC   C1B 3789  20.047   5.751   6.932 -0.1108 -0.0800 -0.0902
    1DIPC   D2B 3790  20.213   5.609   6.586  0.2348  0.2700  0.2994
    1DIPC   D3B 3791  20.605   5.538   6.308  0.0362 -0.0307  0.2284
    1DIPC   C4B 3792  20.837   5.279   6.081  0.2043  0.0403 -0.0135
    1DIPC   NC3 3793   7.196  15.013   6.154 -0.1468  0.0894 -0.0101
    1DIPC   PO4 3794   7.055  14.647   5.918  0.1334 -0.1222  0.3316
    1DIPC   GL1 3795   7.016  14.747   5.430  0.0355  0.0080  0.1841
    1DIPC   GL2 3796   7.167  15.049   5.327  0.3198 -0.1103  0.2111
    1DIPC   C1A 3797   6.913  14.646   4.986 -0.2597 -0.2633  0.0818
    1DIPC   D2A 3798   6.525  14.701   4.766  0.2793  0.0051 -0.3086
    1DIPC   D3A 3799   6.435  14.512   4.393 -0.1422 -0.0011 -0.0469
    1DIPC   C4A 3800   6.678  14.222   4.212 -0.0484 -0.1626 -0.0979
    1DIPC   C1B 3801   7.416  15.166   4.893  0.1024  0.2031  0.1831
    1DIPC   D2B 3802   7.628  15.382   4.588 -0.1046  0.3351  0.4076
    1DIPC   D3B 3803   7.866  15.182   4.423  0.0187  0.1172 -0.0457
    1DIPC   C4B 3804   8.116  15.426   4.213  0.1111  0.1467  0.0411
    1DIPC   NC3 3805  23.567   7.513   7.686 -0.1415  0.0735 -0.3810
    1DIPC   PO4 3806  23.632   7.098   7.496  0.0434  0.0175  0.1290
    1DIPC   GL1 3807  23.578   7.287   7.126  0.1389  0.0980  0.2728
    1DIPC   GL2 3808  23.426   7.629   7.223 -0.0648 -0.4804  0.0826
    1DIPC   C1A 3809  23.847   7.401   6.831 -0.1401  0.3146  0.1746
    1DIPC   D2A 3810  23.937   7.427   6.437 -0.2289 -0.2295 -0.2622
    1DIPC   D3A 3811  23.583   7.435   6.080  0.0609  0.2659 -0.0394
    1DIPC   C4A 3812  23.246   7.626   6.041 -0.1743  0.1179 -0.1748
    1DIPC   C1B 3813  23.307   7.638   6.868 -0.0340  0.0183 -0.2459
    1DIPC   D2B 3814  23.342   7.523   6.530 -0.5316  0.1062 -0.1600
    1DIPC   D3B 3815  23.054   7.364   6.400  0.2779 -0.3830 -0.2167
    1DIPC   C4B 3816  22.813   7.636   6.692 -0.1290 -0.0444 -0.2875
    1DIPC   NC3 3817  11.671   1.377   7.359  0.0797 -0.0518 -0.2861
    1DIPC   PO4 3818  12.082   1.556   7.210 -0.2678  0.0419  0.0702
    1DIPC   GL1 3819  11.951   1.573   6.741  0.0541 -0.3823 -0.0451
    1DIPC   GL2 3820  12.176   1.775   6.520  0.0044 -0.2554  0.1312
    1DIPC   C1A 3821  11.727   1.617   6.320 -0.0036 -0.0276 -0.0741
    1DIPC   D2A 3822  11.463   1.353   6.078 -0.2574  0.0834 -0.1997
    1DIPC   D3A 3823  11.465   1.786   5.934 -0.0362 -0.3232 -0.0369
    1DIPC   C4A 3824  11.412   1.630   5.601 -0.0356  0.2188  0.1245
    1DIPC   C1B 3825  12.216   1.518   6.190 -0.1078  0.0195 -0.0446
    1DIPC   D2B 3826  12.450   1.274   5.853  0.0649  0.1574 -0.1640
    1DIPC   D3B 3827  12.678   1.516   5.527  0.1307  0.0800  0.1199
    1DIPC   C4B 3828  12.485   1.746   5.234 -0.1165 -0.0762 -0.0388
    1DIPC   NC3 3829  19.686  26.953   6.961  0.3020 -0.1148  0.0089
    1DIPC   PO4 3830  19.949  26.800   6.578 -0.0680  0.1936  0.5046
    1DIPC   GL1 3831  20.028  27.042   6.217  0.1608  0.1411 -0.2178
    1DIPC   GL2 3832  20.325  26.935   5.960 -0.2751 -0.0664  0.2224
    1DIPC   C1A 3833  19.975  27.184   5.703  0.0293 -0.2397 -0.1652
    1DIPC   D2A 3834  19.773  27.526   5.431 -0.1315  0.0699  0.1765
    1DIPC   D3A 3835  19.662  28.013   5.456  0.0269 -0.2113  0.0015
    1DIPC   C4A 3836  19.601  28.194   5.093  0.2076 -0.3627  0.1759
    1DIPC   C1B 3837  20.669  27.203   5.792  0.0361  0.0692 -0.4234
    1DIPC   D2B 3838  20.989  27.447   5.543  0.1700  0.0875  0.0341
    1DIPC   D3B 3839  21.084  27.814   5.373 -0.1613 -0.2872 -0.1587
    1DIPC   C4B 3840  20.996  27.986   5.000  0.1190  0.1383 -0.3941
    1DIPC   NC3 3841   1.412  29.492   6.604  0.0922 -0.1503 -0.0245
    1DIPC   PO4 3842   1.610  29.680   6.246 -0.2950  0.1212  0.2227
    1DIPC   GL1 3843   1.643  29.783   5.867 -0.2123 -0.3337 -0.2330
    1DIPC   GL2 3844   1.633   0.226   5.804  0.1887  0.0369  0.3259
    1DIPC   C1A 3845   1.364  29.758   5.422 -0.2065 -0.0628 -0.1901
    1DIPC   D2A 3846   1.456  29.612   4.976 -0.0461  0.0034  0.1705
    1DIPC   D3A 3847   1.356  29.758   4.625  0.0907  0.0751 -0.0947
    1DIPC   C4A 3848   1.620   0.360   4.552 -0.2146  0.0449 -0.1522
    1DIPC   C1B 3849   1.595   0.317   5.360  0.2751 -0.0520 -0.0228
    1DIPC   D2B 3850   1.762   0.146   4.988 -0.0899  0.2688  0.1334
    1DIPC   D3B 3851   1.870  29.698   4.653  0.0724 -0.1054 -0.0818
    1DIPC   C4B 3852   1.905  29.398   4.874  0.1684 -0.3038 -0.0660
    1DIPC   NC3 3853   8.914   4.042   7.614 -0.1335  0.0657 -0.2369
    1DIPC   PO4 3854   8.909   3.843   7.193 -0.0425 -0.0900 -0.1043
    1DIPC   GL1 3855   9.130   3.788   6.870 -0.0290 -0.4033  0.2124
    1DIPC   GL2 3856   9.018   3.579   6.623 -0.0024 -0.0159 -0.2754
    1DIPC   C1A 3857   9.197   4.025   6.529  0.0205 -0.3150  0.1048
    1DIPC   D2A 3858   9.221   4.219   6.108  0.4665 -0.1325 -0.2964
    1DIPC   D3A 3859   9.083   4.585   6.257 -0.2355  0.1695  0.1302
    1DIPC   C4A 3860   9.388   4.712   6.421 -0.1794  0.1337  0.4414
    1DIPC   C1B 3861   9.087   3.633   6.233 -0.1256  0.0931 -0.2845
    1DIPC   D2B 3862   9.061   3.777   5.810  0.2470  0.3026  0.2315
    1DIPC   D3B 3863   9.570   3.888   5.801 -0.0238  0.1298  0.0018
    1DIPC   C4B 3864   9.683   4.258   5.898  0.2663  0.0441 -0.3189
    1DIPC   NC3 3865   6.416   6.344   6.369  0.1328 -0.2748 -0.0883
    1DIPC   PO4 3866   6.319   6.766   6.344 -0.0637 -0.3584 -0.0979
    1DIPC   GL1 3867   5.990   6.737   6.080  0.1765 -0.0023  0.2210
    1DIPC   GL2 3868   5.914   6.956   5.946  0.1215  0.1408  0.2151
    1DIPC   C1A 3869   5.922   6.397   5.789 -0.0655 -0.0428  0.5365
    1DIPC   D2A 3870   5.622   6.042   5.790  0.0994  0.2612  0.0606
    1DIPC   D3A 3871   5.132   6.269   5.752  0.0000  0.3759 -0.0183
    1DIPC   C4A 3872   4.886   6.592   5.530 -0.0407  0.1652  0.2589
    1DIPC   C1B 3873   5.713   6.832   5.620 -0.0133  0.0526 -0.1977
    1DIPC   D2B 3874   5.509   6.452   5.482  0.2014 -0.0688 -0.1835
    1DIPC   D3B 3875   5.192   6.479   5.057  0.0709  0.1047  0.0605
    1DIPC   C4B 3876   5.013   6.132   4.913 -0.1215 -0.1279  0.4367
    1DIPC   NC3 3877  25.554   7.773   7.415  0.0495  0.2320  0.2823
    1DIPC   PO4 3878  25.828   7.338   7.303  0.0260  0.2764 -0.2204
    1DIPC   GL1 3879  25.697   7.496   7.025  0.2099  0.0487  0.0371
    1DIPC   GL2 3880  25.718   7.534   6.707  0.0080  0.3993  0.0406
    1DIPC   C1A 3881  25.199   7.555   6.864  0.1660  0.1458 -0.0617
    1DIPC   D2A 3882  24.980   7.210   6.719 -0.1040  0.2786 -0.1503
    1DIPC   D3A 3883  25.404   7.142   6.573  0.1772 -0.1090  0.2406
    1DIPC   C4A 3884  25.341   7.009   6.199  0.1037 -0.0364  0.1694
    1DIPC   C1B 3885  25.789   7.491   6.261 -0.1249 -0.0353 -0.1834
    1DIPC   D2B 3886  25.671   7.321   5.928  0.1518 -0.0047 -0.0968
    1DIPC   D3B 3887  25.439   7.121   5.635  0.0941  0.3620  0.1739
    1DIPC   C4B 3888  25.542   6.945   5.210  0.1482  0.2544 -0.0841
    1DIPC   NC3 3889  16.508  13.298   7.373  0.1393  0.1312  0.1650
    1DIPC   PO4 3890  16.034  13.289   7.259  0.1362 -0.4233 -0.2187
    1DIPC   GL1 3891  16.133  13.289   6.794 -0.5502 -0.2940  0.0906
    1DIPC   GL2 3892  16.292  12.998   6.744 -0.3853 -0.3078 -0.0212
    1DIPC   C1A 3893  16.475  13.460   6.497  0.1489  0.2057  0.1209
    1DIPC   D2A 3894  16.730  13.849   6.423  0.3263 -0.2848  0.1063
    1DIPC   D3A 3895  16.806  13.897   6.025  0.0326 -0.0424 -0.1121
    1DIPC   C4A 3896  16.776  14.287   5.720  0.0109  0.0445 -0.1661
    1DIPC   C1B 3897  15.976  13.060   6.360  0.0014 -0.0539  0.1445
    1DIPC   D2B 3898  15.943  12.904   5.935 -0.0550 -0.0282 -0.0709
    1DIPC   D3B 3899  16.076  12.604   6.048 -0.2356 -0.1579  0.1278
    1DIPC   C4B 3900  15.802  12.444   6.276 -0.0026 -0.2549  0.1016
    1DIPC   NC3 3901  25.615  21.462   7.036 -0.0658 -0.2397  0.1486
    1DIPC   PO4 3902  25.557  21.309   6.604  0.1064  0.1177  0.1054
    1DIPC   GL1 3903  25.217  21.511   6.302 -0.3561  0.3368 -0.2794
    1DIPC   GL2 3904  24.953  21.518   6.316  0.1836 -0.1366 -0.0212
    1DIPC   C1A 3905  25.141  21.792   5.959 -0.4016  0.0354  0.0064
    1DIPC   D2A 3906  25.066  21.980   5.535  0.1759  0.0642 -0.0951
    1DIPC   D3A 3907  25.418  22.275   5.756  0.0991  0.0636  0.1144
    1DIPC   C4A 3908  25.588  22.575   5.538 -0.0993  0.0389  0.2322
    1DIPC   C1B 3909  24.994  21.277   5.933 -0.1305  0.2282 -0.2468
    1DIPC   D2B 3910  25.021  20.994   5.570 -0.2205 -0.1659 -0.0108
    1DIPC   D3B 3911  25.017  20.978   5.161 -0.0238 -0.1831  0.1461
    1DIPC   C4B 3912  24.932  21.201   4.879  0.0951  0.0318 -0.0274
    1DIPC   NC3 3913  16.210  16.375   5.998 -0.0200  0.2040 -0.0176
    1DIPC   PO4 3914  16.113  16.027   5.719 -0.2973  0.0281 -0.0549
    1DIPC   GL1 3915  16.131  15.818   5.290 -0.0028 -0.1572 -0.2198
    1DIPC   GL2 3916  16.311  15.796   5.050 -0.1094  0.4308  0.0921
    1DIPC   C1A 3917  15.820  15.686   4.909 -0.0921 -0.0992 -0.1946
    1DIPC   D2A 3918  15.809  15.778   4.422 -0.1009 -0.2540  0.1903
    1DIPC   D3A 3919  15.759  15.353   4.465  0.0202 -0.2216  0.0634
    1DIPC   C4A 3920  15.763  15.199   4.895  0.1764 -0.5034  0.2033
    1DIPC   C1B 3921  16.203  16.001   4.815 -0.0089 -0.3759 -0.1998
    1DIPC   D2B 3922  16.066  16.239   4.473  0.0439  0.1637  0.0706
    1DIPC   D3B 3923  16.264  15.854   4.230  0.0388  0.1653 -0.1413
    1DIPC   C4B 3924  16.671  15.800   4.047 -0.3809 -0.0365  0.0278
    1DIPC   NC3 3925  27.694  28.358   6.140  0.0746 -0.0460 -0.0803
    1DIPC   PO4 3926  28.052  28.329   5.814  0.2749  0.3613  0.1930
    1DIPC   GL1 3927  27.737  28.633   5.585 -0.3091  0.2039 -0.1200
    1DIPC   GL2 3928  27.871  28.941   5.462 -0.1048  0.0299 -0.3038
    1DIPC   C1A 3929  27.451  28.873   5.316 -0.2480  0.0181 -0.0664
    1DIPC   D2A 3930  27.437  28.915   4.919  0.0918  0.0597  0.3227
    1DIPC   D3A 3931  27.165  29.144   4.677 -0.2425 -0.0920  0.0209
    1DIPC   C4A 3932  26.708  29.335   4.811 -0.0373 -0.1603  0.1016
    1DIPC   C1B 3933  27.921  28.928   4.981  0.0829 -0.1143  0.0781
    1DIPC   D2B 3934  27.981  29.007   4.611  0.3892  0.2433  0.0753
    1DIPC   D3B 3935  28.448  29.044   4.797  0.1164  0.0452 -0.0294
    1DIPC   C4B 3936  28.807  29.184   4.528  0.1798 -0.0892  0.0342
    1DIPC   NC3 3937   0.805  17.931   6.614 -0.2223 -0.0590 -0.0965
    1DIPC   PO4 3938   0.893  17.575   6.243 -0.3035  0.0477 -0.0604
    1DIPC   GL1 3939   0.705  17.761   5.894  0.0216 -0.2082  0.2629
    1DIPC   GL2 3940   0.936  17.990   5.791 -0.1443  0.0378  0.1269
    1DIPC   C1A 3941   0.708  17.677   5.397 -0.2523 -0.0983 -0.1422
    1DIPC   D2A 3942   0.677  17.390   5.035 -0.1284  0.1320  0.0323
    1DIPC   D3A 3943   0.720  17.775   4.828 -0.0298 -0.3035  0.2912
    1DIPC   C4A 3944   0.914  18.095   5.048 -0.0438  0.4444 -0.0398
    1DIPC   C1B 3945   1.062  18.205   5.525 -0.0895 -0.0281 -0.0134
    1DIPC   D2B 3946   1.260  18.421   5.212 -0.0815  0.0349  0.0827
    1DIPC   D3B 3947   0.873  18.604   4.936  0.0511  0.0279 -0.2235
    1DIPC   C4B 3948   0.624  18.963   4.978 -0.1255 -0.2024 -0.0652
    1DIPC   NC3 3949  27.061  19.746   6.509  0.0199  0.1284 -0.0190
    1DIPC   PO4 3950  26.912  19.387   6.379  0.0132  0.1071  0.0084
    1DIPC   GL1 3951  26.943  19.335   5.945  0.1265 -0.3324  0.1188
    1DIPC   GL2 3952  27.225  19.195   5.712 -0.1988 -0.2899  0.0660
    1DIPC   C1A 3953  26.759  19.426   5.593  0.2665  0.0593  0.1313
    1DIPC   D2A 3954  26.313  19.383   5.408  0.0233  0.1533  0.2105
    1DIPC   D3A 3955  26.552  19.324   5.139 -0.1615  0.1795 -0.0704
    1DIPC   C4A 3956  26.555  19.533   4.769 -0.2174  0.2499  0.0011
    1DIPC   C1B 3957  27.207  19.431   5.439  0.0806  0.0353 -0.0964
    1DIPC   D2B 3958  26.989  19.564   5.059 -0.1135 -0.0447  0.2603
    1DIPC   D3B 3959  26.952  19.805   4.762 -0.0492  0.1178  0.0765
    1DIPC   C4B 3960  27.353  19.921   4.568 -0.0073  0.2983  0.1271
    1DIPC   NC3 3961   7.926  22.238   6.045 -0.1657 -0.2297  0.0192
    1DIPC   PO4 3962   7.914  22.009   5.668  0.1462  0.1831  0.1891
    1DIPC   GL1 3963   8.177  22.210   5.289  0.1339 -0.2765 -0.1553
    1DIPC   GL2 3964   8.341  22.507   5.245  0.0805 -0.0848  0.0936
    1DIPC   C1A 3965   8.146  22.326   4.824  0.0394  0.1710  0.0736
    1DIPC   D2A 3966   8.288  22.418   4.409  0.0705 -0.1101  0.0457
    1DIPC   D3A 3967   8.673  22.185   4.302  0.0880  0.0749  0.1802
    1DIPC   C4A 3968   8.949  22.244   4.012 -0.0576 -0.0533  0.0391
    1DIPC   C1B 3969   8.598  22.573   4.831  0.2125  0.2931 -0.1693
    1DIPC   D2B 3970   9.066  22.666   4.787  0.2013  0.0669  0.0079
    1DIPC   D3B 3971   9.127  22.671   4.290  0.2021  0.2157 -0.1681
    1DIPC   C4B 3972   9.072  23.071   4.265  0.1842 -0.0254 -0.0913
    1DIPC   NC3 3973  29.702  20.059   6.681 -0.1837  0.2092  0.1876
    1DIPC   PO4 3974  29.755  19.929   6.260 -0.2124 -0.3018 -0.0621
    1DIPC   GL1 3975  29.716  19.879   5.859  0.0668 -0.1871 -0.0324
    1DIPC   GL2 3976   0.046  19.570   5.697  0.0870  0.1129 -0.1114
    1DIPC   C1A 3977  29.584  19.850   5.384  0.0273 -0.1562 -0.2355
    1DIPC   D2A 3978  29.857  19.678   5.180 -0.1369  0.1662 -0.0430
    1DIPC   D3A 3979   0.413  19.824   5.047  0.1137  0.3903  0.0914
    1DIPC   C4A 3980   0.769  19.941   5.294 -0.0285 -0.1767 -0.0304
    1DIPC   C1B 3981   0.277  19.938   5.557 -0.2453  0.1171  0.4411
    1DIPC   D2B 3982   0.082  20.196   5.234 -0.2334  0.1380  0.1598
    1DIPC   D3B 3983  29.659  20.014   4.871  0.0683  0.1089 -0.2523
    1DIPC   C4B 3984  29.291  20.226   4.601 -0.2036  0.1815 -0.1275
    1DIPC   NC3 3985  21.995  27.760   7.136  0.0737 -0.0983  0.1675
    1DIPC   PO4 3986  21.940  27.432   6.807 -0.0901  0.2492  0.0908
    1DIPC   GL1 3987  22.093  27.387   6.403 -0.0843 -0.0589 -0.1190
    1DIPC   GL2 3988  22.401  27.236   6.372 -0.0591  0.1534  0.0919
    1DIPC   C1A 3989  22.245  27.682   6.168  0.0523  0.1430  0.0338
    1DIPC   D2A 3990  22.416  27.997   5.853 -0.0389  0.0696  0.0063
    1DIPC   D3A 3991  22.212  28.424   5.842  0.1283 -0.1321 -0.2098
    1DIPC   C4A 3992  21.757  28.458   5.849 -0.0768  0.0626  0.0254
    1DIPC   C1B 3993  22.694  27.145   6.029  0.0907  0.2569  0.0274
    1DIPC   D2B 3994  22.716  27.000   5.667 -0.1799 -0.1094 -0.1190
    1DIPC   D3B 3995  22.611  27.342   5.522  0.0409  0.4492  0.0081
    1DIPC   C4B 3996  22.840  27.614   5.293  0.1467  0.2280  0.0461
    1DIPC   NC3 3997  26.627  28.850   6.809  0.1178 -0.1462  0.0741
    1DIPC   PO4 3998  26.169  28.954   6.902 -0.0915  0.0987  0.3291
    1DIPC   GL1 3999  26.261  29.028   6.514  0.0395 -0.3866  0.0411
    1DIPC   GL2 4000  26.509  28.901   6.255 -0.1225 -0.4399  0.1503
    1DIPC   C1A 4001  25.976  29.053   6.060  0.0315  0.0256  0.1515
    1DIPC   D2A 4002  25.981  29.055   5.536  0.1843 -0.1753 -0.1832
    1DIPC   D3A 4003  26.416  29.041   5.364 -0.0331 -0.3053  0.2378
    1DIPC   C4A 4004  26.282  29.398   5.142 -0.2555  0.2072 -0.3224
    1DIPC   C1B 4005  26.357  28.920   5.804 -0.0062  0.1301  0.2059
    1DIPC   D2B 4006  26.179  28.574   5.533  0.1020  0.1030 -0.2314
    1DIPC   D3B 4007  26.296  28.360   5.809  0.2109  0.0639  0.1699
    1DIPC   C4B 4008  26.073  28.060   5.939 -0.0121  0.3360 -0.0987
    1DIPC   NC3 4009  11.759   7.507   7.191 -0.0912  0.2208 -0.1871
    1DIPC   PO4 4010  11.485   7.172   6.932 -0.1445  0.1147 -0.0486
    1DIPC   GL1 4011  11.785   7.278   6.722 -0.0853 -0.1395 -0.2083
    1DIPC   GL2 4012  11.645   7.302   6.390 -0.2292 -0.3343 -0.0767
    1DIPC   C1A 4013  12.202   7.411   6.717 -0.0894 -0.2491 -0.0640
    1DIPC   D2A 4014  12.278   7.834   6.796  0.1709 -0.1829  0.3319
    1DIPC   D3A 4015  12.195   8.318   6.771 -0.0867 -0.2778  0.1319
    1DIPC   C4A 4016  12.436   8.551   6.541  0.1810 -0.3519 -0.0240
    1DIPC   C1B 4017  11.361   6.934   6.215  0.4191 -0.0430 -0.1084
    1DIPC   D2B 4018  11.380   6.457   6.084  0.1514 -0.2175 -0.4500
    1DIPC   D3B 4019  11.752   6.480   6.241 -0.0990 -0.0733 -0.5768
    1DIPC   C4B 4020  11.824   6.857   6.079  0.1538  0.0962  0.0873
    1DIPC   NC3 4021  19.666  25.465   6.098  0.1713  0.2452  0.0205
    1DIPC   PO4 4022  19.423  25.382   5.775 -0.0745 -0.4528  0.0315
    1DIPC   GL1 4023  19.433  25.409   5.320  0.3548  0.1885 -0.1950
    1DIPC   GL2 4024  19.770  25.396   5.173  0.3372 -0.0005 -0.0447
    1DIPC   C1A 4025  19.385  25.245   4.928 -0.0927  0.0703  0.2941
    1DIPC   D2A 4026  19.213  25.317   4.440  0.1384  0.4053  0.1396
    1DIPC   D3A 4027  19.262  25.775   4.478  0.2589  0.1352  0.1559
    1DIPC   C4A 4028  19.085  25.976   4.208  0.1229 -0.0204 -0.0419
    1DIPC   C1B 4029  20.073  25.498   4.842 -0.0525  0.1039 -0.0027
    1DIPC   D2B 4030  20.381  25.592   4.704  0.2299  0.1627 -0.1102
    1DIPC   D3B 4031  20.239  25.276   4.457  0.0425 -0.0391 -0.2364
    1DIPC   C4B 4032  20.344  25.161   4.019 -0.1090 -0.0906  0.1676
    1DIPC   NC3 4033   3.764  13.982   6.029  0.1542 -0.5366  0.1153
    1DIPC   PO4 4034   4.071  13.551   6.049  0.2297 -0.2451 -0.0277
    1DIPC   GL1 4035   4.056  13.791   5.687  0.1423  0.1085 -0.0008
    1DIPC   GL2 4036   4.260  14.128   5.721  0.1535 -0.2177 -0.0855
    1DIPC   C1A 4037   4.085  13.914   5.300  0.1100 -0.2440 -0.5461
    1DIPC   D2A 4038   3.942  13.808   5.084 -0.0565 -0.1134 -0.0749
    1DIPC   D3A 4039   3.667  14.141   4.887 -0.3002 -0.1107 -0.2306
    1DIPC   C4A 4040   3.712  14.368   4.482 -0.0350  0.0067  0.0404
    1DIPC   C1B 4041   4.549  13.895   5.530  0.0683 -0.1190 -0.0147
    1DIPC   D2B 4042   4.739  13.646   5.259 -0.1339 -0.0930  0.0092
    1DIPC   D3B 4043   4.448  13.740   4.964  0.1389  0.0444  0.2396
    1DIPC   C4B 4044   4.471  14.198   5.083  0.1817 -0.2684 -0.0893
    1DIPC   NC3 4045  11.524   8.355   7.300  0.1205 -0.1453 -0.0390
    1DIPC   PO4 4046  11.489   7.990   7.013 -0.1487 -0.2543  0.0597
    1DIPC   GL1 4047  11.603   7.826   6.654 -0.0412 -0.0605  0.0689
    1DIPC   GL2 4048  11.771   8.108   6.581 -0.3076  0.0182 -0.0558
    1DIPC   C1A 4049  11.882   7.721   6.229 -0.0500 -0.2727 -0.0338
    1DIPC   D2A 4050  12.147   7.868   5.955  0.0459  0.0107 -0.1299
    1DIPC   D3A 4051  12.166   8.285   5.748  0.1289 -0.1431  0.3945
    1DIPC   C4A 4052  12.303   8.566   6.025 -0.0628  0.2068 -0.0852
    1DIPC   C1B 4053  11.578   8.134   6.213  0.0792  0.1395 -0.1382
    1DIPC   D2B 4054  11.642   7.798   5.832 -0.0097 -0.1542 -0.1911
    1DIPC   D3B 4055  11.835   8.003   5.490  0.1254  0.4154 -0.3002
    1DIPC   C4B 4056  12.192   8.129   5.268 -0.2539  0.2419 -0.0903
    1DIPC   NC3 4057   8.269   8.777   6.464 -0.1243  0.1259  0.0141
    1DIPC   PO4 4058   8.221   8.360   6.383  0.3985 -0.2817  0.1244
    1DIPC   GL1 4059   8.319   8.627   5.949 -0.1901 -0.1834  0.2242
    1DIPC   GL2 4060   8.543   8.576   5.780 -0.0828 -0.0403 -0.0575
    1DIPC   C1A 4061   8.049   8.656   5.566 -0.3375  0.2501  0.1350
    1DIPC   D2A 4062   7.703   8.508   5.254  0.0794  0.0352 -0.0303
    1DIPC   D3A 4063   7.520   8.357   5.624 -0.1602 -0.0802 -0.3213
    1DIPC   C4A 4064   7.473   8.382   6.014  0.2801  0.1090  0.0899
    1DIPC   C1B 4065   8.660   8.662   5.387  0.0563  0.1769 -0.1804
    1DIPC   D2B 4066   8.437   8.611   5.096 -0.1370  0.1045 -0.0473
    1DIPC   D3B 4067   8.580   8.197   4.940 -0.0676 -0.2981  0.0608
    1DIPC   C4B 4068   8.249   8.003   4.740  0.2296 -0.2112  0.1084
    1DIPC   NC3 4069  18.004  20.430   5.852  0.0762  0.3389 -0.1441
    1DIPC   PO4 4070  17.999  20.851   5.797 -0.0298  0.0223 -0.2474
    1DIPC   GL1 4071  17.929  20.618   5.383  0.2559 -0.4439 -0.1034
    1DIPC   GL2 4072  18.050  20.902   5.216 -0.1689  0.0532  0.0163
    1DIPC   C1A 4073  17.817  20.473   4.983  0.0892 -0.2795 -0.2831
    1DIPC   D2A 4074  17.501  20.529   4.720  0.0412  0.0784 -0.0048
    1DIPC   D3A 4075  17.345  20.642   5.135  0.1122 -0.2066  0.1091
    1DIPC   C4A 4076  17.019  20.697   5.373  0.2433  0.0244  0.0893
    1DIPC   C1B 4077  18.209  21.064   4.815  0.0771  0.1911 -0.3392
    1DIPC   D2B 4078  18.182  21.394   4.497 -0.0615 -0.0966 -0.1256
    1DIPC   D3B 4079  18.371  21.325   4.137 -0.2712  0.1323 -0.0219
    1DIPC   C4B 4080  18.750  21.521   4.044  0.2310  0.0335  0.0605
    1DIPC   NC3 4081   1.586  17.262   6.667 -0.2509  0.0483 -0.1603
    1DIPC   PO4 4082   1.382  16.877   6.641 -0.2231 -0.0492  0.1833
    1DIPC   GL1 4083   1.125  16.795   6.241 -0.0667 -0.0367  0.2641
    1DIPC   GL2 4084   0.955  16.507   6.233  0.0789 -0.0369 -0.1003
    1DIPC   C1A 4085   1.005  16.804   5.773  0.1903  0.4015  0.0257
    1DIPC   D2A 4086   0.751  16.785   5.432  0.0471 -0.2749  0.0711
    1DIPC   D3A 4087   0.817  16.927   5.096 -0.1942  0.0836  0.1687
    1DIPC   C4A 4088   1.115  16.809   4.828  0.0257  0.0497  0.0991
    1DIPC   C1B 4089   0.763  16.355   5.906 -0.1601 -0.1094  0.4580
    1DIPC   D2B 4090   0.900  16.220   5.521 -0.0970  0.4021  0.1255
    1DIPC   D3B 4091   1.073  16.444   5.151  0.0755  0.2631 -0.1625
    1DIPC   C4B 4092   1.104  16.322   4.783  0.0028  0.0113  0.0142
    1DIPC   NC3 4093   5.945  29.153   6.655  0.2297 -0.0906  0.0815
    1DIPC   PO4 4094   5.645  29.196   6.326 -0.0122  0.0419 -0.0023
    1DIPC   GL1 4095   5.371  29.185   5.911 -0.1198  0.0195 -0.2114
    1DIPC   GL2 4096   5.272  29.442   5.770 -0.0591 -0.2959  0.0198
    1DIPC   C1A 4097   5.307  29.021   5.448  0.1368  0.3227 -0.0816
    1DIPC   D2A 4098   5.553  28.887   5.007  0.0479 -0.1450  0.2276
    1DIPC   D3A 4099   5.104  28.830   4.835 -0.3087 -0.1809 -0.0336
    1DIPC   C4A 4100   4.845  28.724   4.453  0.0038 -0.2149 -0.2114
    1DIPC   C1B 4101   5.408  29.475   5.322 -0.2619 -0.1089 -0.2556
    1DIPC   D2B 4102   5.359  29.290   4.863 -0.0768 -0.2814 -0.0825
    1DIPC   D3B 4103   5.601  29.701   4.776 -0.0261 -0.0514  0.0629
    1DIPC   C4B 4104   5.460   0.285   4.644  0.1205  0.3445  0.2286
    1DIPC   NC3 4105  25.295  27.076   6.579  0.0367  0.0718 -0.4655
    1DIPC   PO4 4106  24.885  27.050   6.706  0.0427  0.0394  0.3072
    1DIPC   GL1 4107  24.906  27.017   6.189 -0.3140  0.0502 -0.0492
    1DIPC   GL2 4108  25.235  27.176   6.034 -0.1284 -0.0929  0.1599
    1DIPC   C1A 4109  24.766  27.479   5.978  0.0294 -0.1262 -0.0353
    1DIPC   D2A 4110  24.973  27.771   5.753 -0.2220 -0.0979 -0.1903
    1DIPC   D3A 4111  24.536  27.685   5.502  0.1080  0.0362 -0.1684
    1DIPC   C4A 4112  24.295  27.489   5.106  0.1185  0.0637 -0.2905
    1DIPC   C1B 4113  25.366  27.314   5.572 -0.2393  0.0220 -0.1687
    1DIPC   D2B 4114  25.339  27.795   5.368  0.3216  0.2144  0.1767
    1DIPC   D3B 4115  25.185  27.780   5.064  0.0542 -0.3627  0.3417
    1DIPC   C4B 4116  24.912  27.429   5.086  0.0372 -0.2191  0.1598
    1DIPC   NC3 4117  22.113   6.208   8.235  0.1996 -0.1038  0.2223
    1DIPC   PO4 4118  21.779   6.390   7.905  0.1823 -0.0915 -0.0091
    1DIPC   GL1 4119  21.608   6.512   7.564 -0.0559 -0.1602  0.3584
    1DIPC   GL2 4120  21.966   6.459   7.387 -0.0609  0.0208 -0.0676
    1DIPC   C1A 4121  21.323   6.614   7.164 -0.0142 -0.0255 -0.1619
    1DIPC   D2A 4122  21.395   6.934   6.812  0.0382 -0.3162  0.4535
    1DIPC   D3A 4123  21.555   7.047   6.436  0.1202  0.2803  0.2077
    1DIPC   C4A 4124  21.521   7.361   6.116 -0.4244  0.0184 -0.2601
    1DIPC   C1B 4125  22.231   6.643   7.093 -0.2221 -0.1464 -0.2942
    1DIPC   D2B 4126  22.494   6.855   6.912  0.1062 -0.0801  0.3063
    1DIPC   D3B 4127  22.131   7.132   6.986 -0.2066 -0.0531 -0.1790
    1DIPC   C4B 4128  21.839   6.920   7.276 -0.1387  0.0517  0.2703
    1DIPC   NC3 4129   9.415  25.142   5.607 -0.1042  0.1771  0.0814
    1DIPC   PO4 4130   9.804  25.396   5.752  0.2261  0.1941  0.1584
    1DIPC   GL1 4131   9.546  25.584   5.452  0.2748 -0.1010  0.2601
    1DIPC   GL2 4132   9.243  25.698   5.519 -0.0105 -0.1959 -0.1660
    1DIPC   C1A 4133   9.630  25.827   5.080  0.0182 -0.0521  0.1192
    1DIPC   D2A 4134   9.690  26.235   4.960  0.0644  0.2826  0.0830
    1DIPC   D3A 4135   9.562  26.245   5.318 -0.0409 -0.1511  0.1654
    1DIPC   C4A 4136   9.177  26.503   5.495  0.0884  0.2766 -0.1364
    1DIPC   C1B 4137   9.164  25.912   5.117 -0.1994 -0.1961  0.3347
    1DIPC   D2B 4138   9.292  26.042   4.704 -0.0058  0.0338 -0.1524
    1DIPC   D3B 4139   9.202  26.295   4.384  0.3195 -0.0232 -0.1194
    1DIPC   C4B 4140   9.244  26.658   4.137  0.3093 -0.0982 -0.2530
    1DIPC   NC3 4141  20.534   5.819   7.694 -0.0793  0.0043  0.1093
    1DIPC   PO4 4142  20.891   6.001   7.874 -0.0788 -0.1355  0.0073
    1DIPC   GL1 4143  20.943   6.302   7.532 -0.2549  0.2988 -0.1455
    1DIPC   GL2 4144  21.139   6.235   7.413 -0.1408  0.0973  0.0193
    1DIPC   C1A 4145  20.737   6.158   7.183  0.0018  0.1870  0.2087
    1DIPC   D2A 4146  20.568   5.714   7.026  0.2302 -0.0057  0.4177
    1DIPC   D3A 4147  20.655   5.335   6.778  0.0171  0.0511  0.2314
    1DIPC   C4A 4148  20.993   5.040   6.899  0.2203  0.0457 -0.2526
    1DIPC   C1B 4149  21.186   6.190   6.980 -0.1438 -0.3053 -0.1430
    1DIPC   D2B 4150  21.233   6.293   6.514  0.0377  0.0488  0.0896
    1DIPC   D3B 4151  21.578   6.485   6.757  0.0190 -0.0308 -0.0987
    1DIPC   C4B 4152  21.886   6.813   6.653 -0.2406  0.1226 -0.0210
    1DIPC   NC3 4153   6.222  14.521   6.183  0.1500  0.1280  0.0990
    1DIPC   PO4 4154   6.192  14.850   5.965 -0.0438 -0.0399  0.0382
    1DIPC   GL1 4155   6.097  14.539   5.638  0.2604 -0.0239 -0.0155
    1DIPC   GL2 4156   6.059  14.266   5.729  0.1845  0.0957  0.0559
    1DIPC   C1A 4157   5.958  14.605   5.249 -0.2571  0.1218 -0.3552
    1DIPC   D2A 4158   5.667  14.627   4.973 -0.2895  0.0785 -0.0456
    1DIPC   D3A 4159   5.325  14.593   4.703  0.1179 -0.2358 -0.0148
    1DIPC   C4A 4160   5.093  14.691   4.509  0.1828  0.0331  0.1444
    1DIPC   C1B 4161   6.106  14.052   5.364 -0.1017 -0.1188 -0.0941
    1DIPC   D2B 4162   6.193  13.997   4.955 -0.4029 -0.2192  0.3396
    1DIPC   D3B 4163   6.135  14.296   4.861 -0.1783 -0.0717  0.0058
    1DIPC   C4B 4164   5.894  14.403   4.500  0.1739 -0.1194 -0.2503
    1DIPC   NC3 4165   7.027   5.607   6.686  0.1770 -0.0149 -0.0470
    1DIPC   PO4 4166   7.370   5.384   6.559 -0.1144 -0.2329 -0.0972
    1DIPC   GL1 4167   7.600   5.304   6.255 -0.2783  0.1652  0.0145
    1DIPC   GL2 4168   7.363   4.993   6.207 -0.3514  0.0910 -0.1529
    1DIPC   C1A 4169   7.620   5.257   5.828  0.0014  0.1209 -0.2450
    1DIPC   D2A 4170   7.335   5.480   5.710 -0.2429  0.1153 -0.3690
    1DIPC   D3A 4171   7.347   5.859   5.469  0.0051 -0.0580  0.4439
    1DIPC   C4A 4172   7.420   5.898   5.030 -0.0866 -0.2537  0.0977
    1DIPC   C1B 4173   7.108   4.646   6.028  0.0190 -0.1218 -0.0947
    1DIPC   D2B 4174   7.082   4.424   5.697  0.1385 -0.3436  0.3791
    1DIPC   D3B 4175   6.940   4.630   5.275  0.1675  0.3441  0.1752
    1DIPC   C4B 4176   6.407   4.747   5.194 -0.0769 -0.0949  0.0712
    1DIPC   NC3 4177   0.461   8.193   6.627  0.0270  0.1779 -0.0837
    1DIPC   PO4 4178   0.540   8.495   6.207  0.0265  0.2123 -0.2866
    1DIPC   GL1 4179   0.569   8.816   5.900 -0.2467 -0.2354 -0.0429
    1DIPC   GL2 4180   0.719   8.679   5.587  0.0905  0.1639 -0.0861
    1DIPC   C1A 4181   0.192   9.023   5.606 -0.2117  0.2167  0.1993
    1DIPC   D2A 4182  29.764   8.937   5.223  0.1243  0.0787 -0.3113
    1DIPC   D3A 4183   0.030   8.897   4.793  0.0056  0.2848  0.2943
    1DIPC   C4A 4184  29.561   8.940   4.525  0.1014  0.1454  0.0970
    1DIPC   C1B 4185   0.839   8.540   5.255 -0.3319  0.0520  0.0304
    1DIPC   D2B 4186   0.969   8.199   4.904 -0.4570  0.2708 -0.3164
    1DIPC   D3B 4187   0.984   8.541   4.565  0.0763 -0.0925 -0.2229
    1DIPC   C4B 4188   1.442   8.808   4.451 -0.0352 -0.2130 -0.1495
    1DIPC   NC3 4189  14.468  25.494   5.691 -0.1551  0.3067  0.3293
    1DIPC   PO4 4190  14.856  25.305   5.695 -0.2880  0.1847  0.2120
    1DIPC   GL1 4191  14.865  25.536   5.235  0.4163  0.1727 -0.2069
    1DIPC   GL2 4192  14.801  25.762   4.948 -0.1558  0.0118  0.6155
    1DIPC   C1A 4193  15.239  25.375   4.992 -0.0725 -0.0725  0.1323
    1DIPC   D2A 4194  15.377  25.143   4.595 -0.0894  0.1046  0.0525
    1DIPC   D3A 4195  14.930  25.034   4.453 -0.2343 -0.3501  0.3259
    1DIPC   C4A 4196  14.961  24.704   4.062 -0.0840  0.1277  0.3429
    1DIPC   C1B 4197  14.901  26.183   4.951 -0.2411  0.0103 -0.1084
    1DIPC   D2B 4198  14.968  26.446   4.580  0.1003  0.2497 -0.1637
    1DIPC   D3B 4199  14.549  26.470   4.356 -0.1205 -0.1212 -0.1207
    1DIPC   C4B 4200  14.233  26.171   4.253  0.2143 -0.3294  0.0664
    1DIPC   NC3 4201   4.445  17.663   6.488  0.3020 -0.0590  0.1837
    1DIPC   PO4 4202   4.666  17.342   6.431 -0.0184 -0.2205 -0.2653
    1DIPC   GL1 4203   4.797  17.083   6.077 -0.4130 -0.0265  0.1959
    1DIPC   GL2 4204   4.581  16.856   6.007  0.1533 -0.1735 -0.0250
    1DIPC   C1A 4205   4.940  17.305   5.655  0.1084 -0.1478  0.0690
    1DIPC   D2A 4206   4.941  17.789   5.501 -0.2056  0.1253  0.0209
    1DIPC   D3A 4207   4.722  17.965   5.149 -0.1038  0.0454  0.2028
    1DIPC   C4A 4208   4.919  18.231   4.901  0.1627 -0.1026 -0.0508
    1DIPC   C1B 4209   4.626  16.915   5.588  0.3108  0.1360 -0.0001
    1DIPC   D2B 4210   4.783  17.011   5.269  0.1161 -0.0509 -0.0966
    1DIPC   D3B 4211   4.512  17.300   5.085 -0.0769  0.1798 -0.2572
    1DIPC   C4B 4212   4.766  17.590   4.844  0.2990  0.1621  0.0347
    1DIPC   NC3 4213  18.588   5.318   7.893  0.1760  0.0020 -0.3918
    1DIPC   PO4 4214  19.066   5.313   7.771 -0.1492  0.1561 -0.0103
    1DIPC   GL1 4215  19.256   5.344   7.414  0.3079 -0.3113 -0.1956
    1DIPC   GL2 4216  19.302   5.013   7.420  0.1056 -0.0378 -0.0182
    1DIPC   C1A 4217  19.418   5.470   7.090 -0.0926  0.2031 -0.1481
    1DIPC   D2A 4218  19.659   5.464   6.748 -0.0418 -0.2016  0.0886
    1DIPC   D3A 4219  19.700   5.102   6.663  0.0948 -0.0116  0.2370
    1DIPC   C4A 4220  19.305   4.709   6.410 -0.2497  0.2062  0.2950
    1DIPC   C1B 4221  19.631   5.016   7.152  0.1722 -0.0122  0.1303
    1DIPC   D2B 4222  19.995   4.760   6.972 -0.3465  0.1066 -0.3932
    1DIPC   D3B 4223  19.796   4.583   6.564  0.2801 -0.1576 -0.1188
    1DIPC   C4B 4224  19.770   4.742   6.173  0.3144  0.1950  0.0654
    1DIPC   NC3 4225  17.190   2.599   8.048 -0.1543 -0.0299  0.0016
    1DIPC   PO4 4226  16.653   2.460   7.891  0.0695  0.0148 -0.0932
    1DIPC   GL1 4227  16.368   2.276   7.616 -0.0050 -0.1276  0.0454
    1DIPC   GL2 4228  16.084   2.403   7.585  0.2948  0.0330 -0.0349
    1DIPC   C1A 4229  16.232   1.938   7.410  0.4724  0.1161  0.0773
    1DIPC   D2A 4230  16.025   1.704   7.121  0.0047  0.1114 -0.3045
    1DIPC   D3A 4231  16.065   1.387   6.850  0.0107  0.1191 -0.0818
    1DIPC   C4A 4232  16.040   1.386   6.425  0.1828  0.1391  0.1093
    1DIPC   C1B 4233  16.195   2.489   7.140 -0.1675 -0.2076  0.1759
    1DIPC   D2B 4234  16.351   2.703   6.880  0.2328  0.0738  0.1832
    1DIPC   D3B 4235  16.166   2.651   6.476 -0.2459  0.0422 -0.3799
    1DIPC   C4B 4236  15.670   2.699   6.488  0.1519  0.0525  0.2856
    1DIPC   NC3 4237   7.105  27.277   6.033  0.1514  0.0268  0.1280
    1DIPC   PO4 4238   7.232  26.912   6.084  0.1966  0.1245 -0.0531
    1DIPC   GL1 4239   7.373  26.852   5.728 -0.1646  0.0616  0.0151
    1DIPC   GL2 4240   7.119  26.621   5.547 -0.2171 -0.0956 -0.1089
    1DIPC   C1A 4241   7.643  26.722   5.312  0.2345  0.2204 -0.0745
    1DIPC   D2A 4242   7.834  26.539   4.823 -0.1154 -0.0758  0.0763
    1DIPC   D3A 4243   8.012  26.761   4.394  0.0077  0.0719  0.1292
    1DIPC   C4A 4244   7.811  27.077   4.209 -0.1723  0.0743 -0.0824
    1DIPC   C1B 4245   7.124  26.459   5.099 -0.0460 -0.1382  0.3923
    1DIPC   D2B 4246   7.278  26.402   4.694  0.1642 -0.0537  0.0598
    1DIPC   D3B 4247   7.550  26.698   4.494  0.0646  0.1029 -0.0191
    1DIPC   C4B 4248   7.374  26.806   4.137  0.0489 -0.3459 -0.1428
    1DIPC   NC3 4249   1.136  11.677   6.664  0.0590 -0.1324 -0.2450
    1DIPC   PO4 4250   0.606  11.649   6.643 -0.1622 -0.0828  0.1928
    1DIPC   GL1 4251   0.584  11.559   6.284  0.2237 -0.0164 -0.1454
    1DIPC   GL2 4252   0.905  11.595   6.174  0.1497 -0.0518 -0.0242
    1DIPC   C1A 4253   0.452  11.848   5.885 -0.0778  0.1912 -0.2850
    1DIPC   D2A 4254   0.138  11.867   5.607 -0.0810 -0.0721  0.2746
    1DIPC   D3A 4255   0.097  11.784   5.167 -0.2290 -0.1792  0.1251
    1DIPC   C4A 4256   0.453  12.033   4.880 -0.0794  0.1237  0.2109
    1DIPC   C1B 4257   0.901  12.038   5.929 -0.3378  0.0508 -0.3484
    1DIPC   D2B 4258   1.127  12.127   5.457  0.0927 -0.0184 -0.1932
    1DIPC   D3B 4259   0.996  11.904   5.037 -0.1713  0.1447  0.1051
    1DIPC   C4B 4260   0.649  11.572   5.123  0.0556 -0.0580  0.0574
    1DIPC   NC3 4261  20.451  24.737   5.997  0.0666 -0.1293 -0.0107
    1DIPC   PO4 4262  20.853  24.670   5.880 -0.3527  0.1695  0.1754
    1DIPC   GL1 4263  20.811  24.824   5.505 -0.1445  0.3262  0.1351
    1DIPC   GL2 4264  20.512  24.819   5.299  0.0940 -0.2386 -0.2246
    1DIPC   C1A 4265  20.936  24.645   5.086  0.1959 -0.2031 -0.3676
    1DIPC   D2A 4266  21.164  24.737   4.729 -0.1465  0.3989 -0.0364
    1DIPC   D3A 4267  21.438  24.462   4.498  0.0453  0.1021 -0.1977
    1DIPC   C4A 4268  21.656  24.139   4.687 -0.0417 -0.0982  0.2987
    1DIPC   C1B 4269  20.447  24.605   4.857 -0.1370  0.0545  0.2119
    1DIPC   D2B 4270  20.638  24.529   4.448  0.0466  0.2351 -0.0993
    1DIPC   D3B 4271  20.155  24.757   4.345  0.0431  0.1838  0.3042
    1DIPC   C4B 4272  19.820  24.907   4.171  0.0249  0.2932  0.0990
    1DIPC   NC3 4273  12.832  29.602   7.462  0.0747  0.1062  0.2394
    1DIPC   PO4 4274  12.944   0.174   7.337  0.3377 -0.0026 -0.2026
    1DIPC   GL1 4275  12.869   0.150   6.927 -0.0880 -0.1329  0.2400
    1DIPC   GL2 4276  12.805  29.669   6.912 -0.0497  0.0109 -0.0353
    1DIPC   C1A 4277  13.025   0.043   6.499 -0.0331 -0.2111 -0.2709
    1DIPC   D2A 4278  13.403   0.234   6.350  0.1001 -0.2648  0.1134
    1DIPC   D3A 4279  13.204   0.452   5.957 -0.1561  0.2256  0.1710
    1DIPC   C4A 4280  13.106   0.109   5.515 -0.0815 -0.0795 -0.2415
    1DIPC   C1B 4281  13.251  29.485   6.802  0.0771 -0.1765 -0.0494
    1DIPC   D2B 4282  13.506  29.414   6.451  0.1623 -0.0363 -0.1485
    1DIPC   D3B 4283  13.555  29.680   6.013  0.1389  0.1756 -0.0635
    1DIPC   C4B 4284  13.425  29.580   5.528 -0.1087 -0.3026 -0.2939
    1DIPC   NC3 4285   5.732  12.412   5.721 -0.3476 -0.2400 -0.1717
    1DIPC   PO4 4286   5.623  12.000   5.798 -0.1217 -0.1608  0.0845
    1DIPC   GL1 4287   5.577  11.836   5.392 -0.0352  0.1622 -0.1097
    1DIPC   GL2 4288   5.307  11.625   5.292  0.3593 -0.1032  0.1968
    1DIPC   C1A 4289   5.512  11.737   4.903 -0.2532 -0.0484 -0.1005
    1DIPC   D2A 4290   5.332  12.011   4.598  0.0541  0.0908 -0.0225
    1DIPC   D3A 4291   5.486  12.201   4.215 -0.1856 -0.2210 -0.3514
    1DIPC   C4A 4292   6.007  12.097   4.027 -0.3242  0.1599 -0.0782
    1DIPC   C1B 4293   5.158  11.384   5.053  0.0822 -0.0183 -0.1132
    1DIPC   D2B 4294   4.931  11.082   5.010  0.0035  0.1531 -0.0867
    1DIPC   D3B 4295   4.703  11.211   4.592 -0.1198  0.3423 -0.3848
    1DIPC   C4B 4296   4.591  11.481   4.350 -0.3773 -0.0380 -0.0590
    1DIPC   NC3 4297   6.373  26.560   6.225 -0.0956 -0.3617  0.3815
    1DIPC   PO4 4298   6.604  26.319   5.982  0.2361  0.1716 -0.1075
    1DIPC   GL1 4299   6.590  26.482   5.585  0.0695 -0.2605 -0.0068
    1DIPC   GL2 4300   6.653  26.199   5.454  0.1264  0.1257 -0.3150
    1DIPC   C1A 4301   6.753  26.700   5.276 -0.0731 -0.1211  0.0813
    1DIPC   D2A 4302   7.037  27.016   5.284  0.0034  0.1864  0.1015
    1DIPC   D3A 4303   7.123  26.869   4.860  0.0222  0.0011 -0.2841
    1DIPC   C4A 4304   7.077  27.008   4.425 -0.2021 -0.1585 -0.2359
    1DIPC   C1B 4305   6.610  26.199   5.007 -0.1199 -0.5273 -0.3508
    1DIPC   D2B 4306   6.351  26.233   4.663  0.0995  0.1892 -0.2792
    1DIPC   D3B 4307   6.490  26.460   4.227 -0.0919  0.0842 -0.1315
    1DIPC   C4B 4308   6.940  26.576   4.278  0.1286 -0.3225  0.0311
    1DIPC   NC3 4309  14.799  16.935   5.692  0.1675  0.0164 -0.2314
    1DIPC   PO4 4310  14.771  16.532   5.946 -0.0820 -0.0781  0.1040
    1DIPC   GL1 4311  14.837  16.371   5.469  0.0437 -0.1801 -0.2801
    1DIPC   GL2 4312  14.724  16.015   5.410  0.0864  0.0184 -0.1468
    1DIPC   C1A 4313  15.249  16.539   5.164 -0.2742 -0.0263  0.0958
    1DIPC   D2A 4314  15.613  16.824   5.260  0.2526 -0.1963  0.1047
    1DIPC   D3A 4315  15.598  16.805   4.871 -0.2083  0.2263  0.1507
    1DIPC   C4A 4316  15.738  16.997   4.434  0.1869  0.1089 -0.0873
    1DIPC   C1B 4317  14.790  16.265   5.042 -0.1936  0.0391  0.1594
    1DIPC   D2B 4318  15.024  16.435   4.674  0.0368 -0.0614 -0.1865
    1DIPC   D3B 4319  15.213  16.863   4.514 -0.1026  0.2654 -0.0705
    1DIPC   C4B 4320  15.352  16.891   4.009 -0.1638 -0.0095  0.1267
    1DIPC   NC3 4321  20.240  27.429   6.664  0.2086  0.0417 -0.0904
    1DIPC   PO4 4322  20.610  27.344   6.442 -0.0811  0.1795 -0.3504
    1DIPC   GL1 4323  20.409  27.462   6.144  0.1076 -0.0430  0.0538
    1DIPC   GL2 4324  20.088  27.568   6.226 -0.1439 -0.2523 -0.0738
    1DIPC   C1A 4325  20.199  27.643   5.704  0.1692  0.2077 -0.1968
    1DIPC   D2A 4326  20.138  28.093   5.536 -0.0058 -0.0099  0.2670
    1DIPC   D3A 4327  20.105  27.832   5.210  0.1800 -0.2717 -0.0270
    1DIPC   C4A 4328  20.474  27.878   4.960  0.1514 -0.0243  0.0391
    1DIPC   C1B 4329  19.761  27.742   5.926 -0.3672 -0.2169  0.1489
    1DIPC   D2B 4330  19.278  27.734   5.810 -0.1778  0.0381  0.3101
    1DIPC   D3B 4331  19.283  27.502   5.478  0.0341 -0.1715 -0.0028
    1DIPC   C4B 4332  19.217  27.700   5.111  0.0273 -0.1321  0.0720
    1DIPC   NC3 4333  18.884   1.940   7.818 -0.0747 -0.5442  0.3749
    1DIPC   PO4 4334  19.316   1.871   7.636  0.1175 -0.1564  0.0485
    1DIPC   GL1 4335  19.464   2.133   7.374  0.2055  0.1069  0.0292
    1DIPC   GL2 4336  19.238   2.436   7.291  0.2585  0.1336 -0.0866
    1DIPC   C1A 4337  19.572   2.187   7.021 -0.2446  0.1393 -0.1484
    1DIPC   D2A 4338  19.697   1.925   6.734  0.0526  0.0658 -0.3189
    1DIPC   D3A 4339  19.870   2.209   6.314  0.0392 -0.0514  0.3171
    1DIPC   C4A 4340  20.326   2.362   6.066 -0.1980 -0.1654 -0.1050
    1DIPC   C1B 4341  19.328   2.670   6.972  0.1524 -0.0743 -0.1983
    1DIPC   D2B 4342  19.659   2.575   6.622  0.0357 -0.1287 -0.0198
    1DIPC   D3B 4343  19.948   2.884   6.677  0.1911  0.1158  0.0843
    1DIPC   C4B 4344  20.345   2.779   6.416 -0.0480 -0.1105  0.0608
    1DIPC   NC3 4345  26.909  25.718   6.584  0.1693  0.0270  0.1519
    1DIPC   PO4 4346  26.846  26.035   6.241  0.2354  0.2133 -0.3166
    1DIPC   GL1 4347  26.813  25.968   5.870  0.1781 -0.0186 -0.0333
    1DIPC   GL2 4348  26.554  25.853   5.851 -0.0883  0.1739  0.0061
    1DIPC   C1A 4349  26.766  25.555   5.527 -0.0749  0.0384  0.1506
    1DIPC   D2A 4350  26.656  25.267   5.129 -0.1256  0.2963  0.2221
    1DIPC   D3A 4351  26.481  25.527   4.710 -0.2932 -0.1752 -0.0184
    1DIPC   C4A 4352  26.533  26.007   4.682  0.1205 -0.0620  0.2682
    1DIPC   C1B 4353  26.561  26.138   5.490  0.0047  0.0322  0.0719
    1DIPC   D2B 4354  26.549  26.343   5.106  0.1767  0.2200 -0.0773
    1DIPC   D3B 4355  26.924  26.328   4.826 -0.0931 -0.0210  0.0113
    1DIPC   C4B 4356  27.095  26.696   4.636 -0.0407  0.3143 -0.0742
    1DIPC   NC3 4357   5.479  29.672   6.200 -0.1041 -0.0956  0.1100
    1DIPC   PO4 4358   5.767  29.793   5.937  0.1171  0.4035 -0.0363
    1DIPC   GL1 4359   5.942  29.846   5.567 -0.2228  0.1664  0.1859
    1DIPC   GL2 4360   5.744   0.007   5.264 -0.4705  0.0247  0.0997
    1DIPC   C1A 4361   6.249  29.815   5.250 -0.1487  0.1824  0.2795
    1DIPC   D2A 4362   6.529  29.815   4.903 -0.1017 -0.3002  0.3718
    1DIPC   D3A 4363   6.718  29.550   4.953 -0.0271 -0.0192  0.0666
    1DIPC   C4A 4364   7.222  29.525   4.979  0.1345  0.0847 -0.0911
    1DIPC   C1B 4365   5.996   0.202   4.912  0.3075  0.0668 -0.3640
    1DIPC   D2B 4366   5.950   0.317   4.479 -0.3457 -0.0216 -0.2574
    1DIPC   D3B 4367   5.745  29.855   4.277  0.5520 -0.0175  0.2601
    1DIPC   C4B 4368   5.513  29.444   4.249  0.1204  0.1662  0.0502
    1DIPC   NC3 4369  25.373  17.674   6.913  0.0815  0.0707 -0.0026
    1DIPC   PO4 4370  25.782  17.404   6.796  0.2628 -0.0320  0.2170
    1DIPC   GL1 4371  25.897  17.251   6.412 -0.3689  0.1639 -0.1329
    1DIPC   GL2 4372  26.067  16.986   6.396  0.0586 -0.2224 -0.0933
    1DIPC   C1A 4373  25.860  17.096   5.953  0.1695 -0.0429  0.0434
    1DIPC   D2A 4374  25.659  16.961   5.583 -0.1592 -0.2249  0.2482
    1DIPC   D3A 4375  25.525  16.671   5.276 -0.0487 -0.0040  0.0468
    1DIPC   C4A 4376  25.166  16.467   5.076  0.3130  0.1043 -0.1466
    1DIPC   C1B 4377  26.375  16.773   6.158 -0.1787  0.1155 -0.1113
    1DIPC   D2B 4378  26.620  16.392   6.198 -0.2001  0.0819 -0.1155
    1DIPC   D3B 4379  26.712  16.436   5.828 -0.0151  0.1729 -0.0777
    1DIPC   C4B 4380  26.393  16.664   5.680  0.0365 -0.2284 -0.0625
    1DIPC   NC3 4381  24.329   0.097   6.874 -0.0952  0.0647  0.0244
    1DIPC   PO4 4382  24.688   0.392   6.988  0.3730 -0.0266  0.2578
    1DIPC   GL1 4383  24.822   0.492   6.602  0.0710 -0.0538 -0.1367
    1DIPC   GL2 4384  24.741   0.715   6.552 -0.2176 -0.1655 -0.0361
    1DIPC   C1A 4385  24.678   0.436   6.187  0.1861 -0.1334  0.2032
    1DIPC   D2A 4386  24.330   0.278   5.873  0.2003 -0.1337  0.0815
    1DIPC   D3A 4387  24.329   0.606   5.690 -0.0965 -0.1259  0.0399
    1DIPC   C4A 4388  24.068   0.892   5.500  0.2725 -0.4524  0.1188
    1DIPC   C1B 4389  24.641   0.974   6.088  0.0156  0.2249 -0.0988
    1DIPC   D2B 4390  24.931   1.159   5.794 -0.4866 -0.3129  0.0450
    1DIPC   D3B 4391  25.257   0.916   5.486  0.1085 -0.0195  0.0177
    1DIPC   C4B 4392  25.392   0.435   5.446 -0.1130 -0.1505 -0.1478
    1DIPC   NC3 4393   9.830  27.616   5.906 -0.4777  0.0871  0.3974
    1DIPC   PO4 4394  10.155  27.901   6.067  0.1373 -0.2604  0.2432
    1DIPC   GL1 4395  10.305  27.948   5.695 -0.1674  0.1485  0.0733
    1DIPC   GL2 4396  10.014  28.006   5.624  0.0399 -0.3577 -0.0786
    1DIPC   C1A 4397  10.415  27.968   5.304 -0.0407  0.0233 -0.3079
    1DIPC   D2A 4398  10.530  27.877   4.903  0.1340  0.1061 -0.0821
    1DIPC   D3A 4399  10.778  28.114   4.641  0.0672 -0.1440 -0.1495
    1DIPC   C4A 4400  10.551  28.537   4.500 -0.5919  0.1246  0.2376
    1DIPC   C1B 4401   9.816  28.189   5.373 -0.0142  0.2879  0.1330
    1DIPC   D2B 4402   9.643  28.601   5.100 -0.1822 -0.0757 -0.1896
    1DIPC   D3B 4403   9.325  28.570   4.838 -0.1126  0.1288  0.2261
    1DIPC   C4B 4404   9.495  28.615   4.337 -0.1257 -0.2412  0.0424
    1DIPC   NC3 4405   1.815   5.150   6.889 -0.3047 -0.0038 -0.2969
    1DIPC   PO4 4406   1.907   4.738   6.642 -0.1165 -0.0853 -0.4274
    1DIPC   GL1 4407   1.769   4.948   6.236 -0.3584  0.0320  0.1865
    1DIPC   GL2 4408   1.867   5.292   6.115  0.0165  0.1423  0.1177
    1DIPC   C1A 4409   1.349   4.971   6.132 -0.3615 -0.0884 -0.1516
    1DIPC   D2A 4410   1.193   5.156   5.683  0.2115 -0.0188  0.1585
    1DIPC   D3A 4411   1.038   5.269   5.257  0.1450 -0.0986 -0.1004
    1DIPC   C4A 4412   0.721   5.026   5.095 -0.0612  0.1145  0.3041
    1DIPC   C1B 4413   1.748   5.131   5.658 -0.2767 -0.1879  0.0238
    1DIPC   D2B 4414   1.585   4.900   5.319 -0.0087  0.0287  0.0403
    1DIPC   D3B 4415   1.590   5.102   4.903 -0.1075  0.0620  0.2625
    1DIPC   C4B 4416   1.243   5.328   4.777  0.0720  0.2092  0.2192
    1DIPC   NC3 4417  14.806   4.421   8.104  0.3046  0.0520 -0.2321
    1DIPC   PO4 4418  14.364   4.044   8.109 -0.1096  0.0535 -0.1089
    1DIPC   GL1 4419  14.328   4.138   7.645 -0.1194  0.1084  0.0202
    1DIPC   GL2 4420  14.118   4.057   7.439  0.1227 -0.0828  0.1297
    1DIPC   C1A 4421  14.611   4.219   7.237  0.4078 -0.0596  0.3159
    1DIPC   D2A 4422  14.809   4.150   6.869  0.1655  0.0115 -0.0800
    1DIPC   D3A 4423  14.656   3.870   6.496 -0.0697  0.3494 -0.0636
    1DIPC   C4A 4424  14.704   3.460   6.389  0.0220  0.1087 -0.2821
    1DIPC   C1B 4425  14.167   4.156   6.970  0.0289  0.1119  0.3101
    1DIPC   D2B 4426  14.036   3.939   6.506 -0.0102  0.1418  0.2306
    1DIPC   D3B 4427  13.997   4.297   6.498  0.0982  0.0909 -0.1589
    1DIPC   C4B 4428  13.861   4.541   6.140 -0.0922  0.1303 -0.1818
    1DIPC   NC3 4429   8.518  22.906   5.783  0.2103 -0.2939 -0.0880
    1DIPC   PO4 4430   8.591  22.425   5.670  0.0072 -0.0467 -0.1291
    1DIPC   GL1 4431   8.749  22.226   5.193 -0.0040  0.2295  0.0662
    1DIPC   GL2 4432   9.037  21.923   5.217  0.0836 -0.0586  0.3177
    1DIPC   C1A 4433   8.606  21.973   4.938  0.2981 -0.1628  0.0671
    1DIPC   D2A 4434   8.325  21.870   4.583  0.1780 -0.1807  0.1634
    1DIPC   D3A 4435   8.444  21.751   4.168 -0.2294  0.0857 -0.0606
    1DIPC   C4A 4436   8.619  21.374   4.256  0.0385 -0.0353  0.0365
    1DIPC   C1B 4437   9.226  21.850   4.856 -0.1642 -0.0507  0.0525
    1DIPC   D2B 4438   9.633  21.687   4.494  0.5776 -0.0498 -0.1030
    1DIPC   D3B 4439   9.712  21.756   4.050 -0.0833 -0.0030  0.0620
    1DIPC   C4B 4440  10.072  21.380   3.912 -0.2522 -0.1173  0.0612
    1DIPC   NC3 4441  10.076  22.146   5.771 -0.1814 -0.0991  0.1215
    1DIPC   PO4 4442   9.767  22.517   6.102 -0.1707  0.0887 -0.0508
    1DIPC   GL1 4443   9.961  22.717   5.701  0.0308 -0.0365  0.1580
    1DIPC   GL2 4444   9.822  22.748   5.391  0.3665 -0.0326 -0.1147
    1DIPC   C1A 4445  10.268  23.001   5.399 -0.2268  0.0592  0.0320
    1DIPC   D2A 4446  10.522  22.773   5.112 -0.2181  0.1608  0.2385
    1DIPC   D3A 4447  10.483  23.147   4.923 -0.0034  0.0718 -0.1719
    1DIPC   C4A 4448  10.490  23.358   4.558  0.0181  0.1145  0.0772
    1DIPC   C1B 4449   9.585  22.688   4.913 -0.0422  0.1865 -0.0912
    1DIPC   D2B 4450   9.547  22.847   4.481  0.0735  0.2119  0.1691
    1DIPC   D3B 4451   9.909  22.746   4.265 -0.2698  0.0613  0.2481
    1DIPC   C4B 4452  10.013  22.447   4.101  0.1819 -0.1950  0.2911
    1DIPC   NC3 4453   5.831   7.735   6.873  0.0113 -0.1402 -0.0838
    1DIPC   PO4 4454   6.168   7.762   6.586 -0.0949 -0.0255  0.1027
    1DIPC   GL1 4455   6.287   7.919   6.138 -0.0762 -0.1755 -0.1410
    1DIPC   GL2 4456   6.536   7.803   5.894  0.1297 -0.0670 -0.0228
    1DIPC   C1A 4457   6.036   7.940   5.790 -0.0534 -0.1513 -0.3728
    1DIPC   D2A 4458   5.813   7.820   5.410 -0.1108 -0.1346  0.1754
    1DIPC   D3A 4459   5.815   7.542   5.052  0.1275 -0.1076 -0.0549
    1DIPC   C4A 4460   6.020   7.171   5.206 -0.0750 -0.1935  0.0408
    1DIPC   C1B 4461   6.504   8.079   5.667 -0.2411 -0.0989 -0.0343
    1DIPC   D2B 4462   6.623   8.157   5.232  0.3631  0.1638 -0.0851
    1DIPC   D3B 4463   6.828   8.373   4.917 -0.1778  0.3493 -0.3202
    1DIPC   C4B 4464   6.627   8.739   4.743  0.2490  0.2764  0.0612
    1DIPC   NC3 4465   7.700  19.129   6.167  0.1096 -0.0667 -0.1269
    1DIPC   PO4 4466   8.142  19.174   6.100 -0.2108  0.0386  0.0085
    1DIPC   GL1 4467   8.148  19.395   5.834 -0.0973 -0.4287 -0.1031
    1DIPC   GL2 4468   8.357  19.570   5.669 -0.0584 -0.0337  0.2197
    1DIPC   C1A 4469   7.927  19.436   5.410 -0.0083  0.0872  0.2150
    1DIPC   D2A 4470   7.869  19.141   5.113  0.1471 -0.0924 -0.0968
    1DIPC   D3A 4471   7.698  18.749   5.140  0.0258  0.0474  0.2521
    1DIPC   C4A 4472   7.506  18.474   4.912 -0.0008 -0.1875  0.0113
    1DIPC   C1B 4473   8.093  19.880   5.411  0.0611  0.1180 -0.0832
    1DIPC   D2B 4474   7.764  19.977   5.105  0.0038 -0.1332  0.0069
    1DIPC   D3B 4475   7.888  19.607   4.912  0.0528  0.0285  0.0583
    1DIPC   C4B 4476   8.158  19.384   4.653 -0.1973  0.0711  0.2392
    1DIPC   NC3 4477   1.114   4.741   7.194  0.0429  0.1258  0.0561
    1DIPC   PO4 4478   1.121   4.381   6.820 -0.2054 -0.1876 -0.1239
    1DIPC   GL1 4479   1.196   4.086   6.465  0.1795 -0.3853 -0.0862
    1DIPC   GL2 4480   1.147   3.770   6.358 -0.2155  0.1024  0.2037
    1DIPC   C1A 4481   1.186   4.162   5.942 -0.1765  0.2610  0.0931
    1DIPC   D2A 4482   1.082   4.157   5.489  0.0350 -0.0025  0.2793
    1DIPC   D3A 4483   0.683   3.902   5.532  0.1486 -0.1370 -0.4077
    1DIPC   C4A 4484   0.355   3.956   5.230 -0.3243 -0.0452  0.3144
    1DIPC   C1B 4485   1.098   3.665   5.833  0.1676  0.0031  0.0866
    1DIPC   D2B 4486   1.051   3.582   5.389 -0.1600 -0.0625 -0.0049
    1DIPC   D3B 4487   0.839   3.140   5.246  0.2369 -0.1727  0.1450
    1DIPC   C4B 4488   0.693   2.921   5.625 -0.1241  0.0058 -0.0587
    1DIPC   NC3 4489  23.871  28.192   6.754 -0.2214  0.0306  0.2020
    1DIPC   PO4 4490  23.772  27.857   6.644  0.1289 -0.0177 -0.0498
    1DIPC   GL1 4491  23.908  27.773   6.256  0.0544 -0.2737 -0.1885
    1DIPC   GL2 4492  24.051  27.385   6.124  0.0902 -0.1372  0.1754
    1DIPC   C1A 4493  23.812  27.878   5.881 -0.0406 -0.2830  0.0512
    1DIPC   D2A 4494  23.783  28.241   5.596  0.1072  0.0586 -0.2415
    1DIPC   D3A 4495  23.760  28.390   5.263 -0.0019  0.0618 -0.0546
    1DIPC   C4A 4496  23.337  28.378   5.166 -0.1690  0.2195  0.0941
    1DIPC   C1B 4497  24.056  27.468   5.679  0.0873 -0.2140 -0.0516
    1DIPC   D2B 4498  23.976  27.764   5.356  0.0485  0.1231 -0.0700
    1DIPC   D3B 4499  23.680  27.920   5.032 -0.0269  0.1683  0.0406
    1DIPC   C4B 4500  23.495  27.662   4.593 -0.1257 -0.0672  0.6285
    1DIPC   NC3 4501  15.483   3.530   7.943 -0.0732  0.2348  0.2131
    1DIPC   PO4 4502  15.980   3.723   7.945  0.0666 -0.2831 -0.1037
    1DIPC   GL1 4503  15.922   3.802   7.552 -0.0932 -0.0298  0.1777
    1DIPC   GL2 4504  16.174   3.929   7.418  0.2583  0.0244  0.1251
    1DIPC   C1A 4505  15.580   3.739   7.243 -0.0575  0.0205 -0.0228
    1DIPC   D2A 4506  15.552   3.473   7.005 -0.2089 -0.0386  0.0309
    1DIPC   D3A 4507  15.516   3.985   6.756 -0.2057  0.0185  0.2390
    1DIPC   C4A 4508  15.159   4.086   6.515 -0.0086  0.1802  0.4627
    1DIPC   C1B 4509  16.512   3.777   7.166  0.1081  0.1686 -0.1648
    1DIPC   D2B 4510  16.421   3.650   6.675 -0.4264 -0.1596 -0.0226
    1DIPC   D3B 4511  16.646   3.289   6.414 -0.0037 -0.1709 -0.1439
    1DIPC   C4B 4512  16.412   2.946   6.180  0.0422  0.0477  0.4845
    1DIPC   NC3 4513   0.459  18.594   6.184 -0.0532  0.0701  0.0809
    1DIPC   PO4 4514   0.713  18.172   6.200  0.0473 -0.0427  0.4415
    1DIPC   GL1 4515   0.948  18.484   5.969 -0.0684 -0.0445  0.0610
    1DIPC   GL2 4516   0.712  18.493   5.762  0.3313  0.0213 -0.3328
    1DIPC   C1A 4517   1.159  18.749   5.670  0.0015  0.0977  0.0959
    1DIPC   D2A 4518   1.483  18.882   5.254  0.0233 -0.0035  0.0567
    1DIPC   D3A 4519   1.502  18.836   4.742  0.4920  0.0353 -0.1102
    1DIPC   C4A 4520   1.780  18.917   4.444 -0.1420  0.0055  0.0288
    1DIPC   C1B 4521   0.599  18.341   5.395 -0.0477 -0.0207  0.4318
    1DIPC   D2B 4522   0.365  18.425   5.095  0.1675  0.3487 -0.0007
    1DIPC   D3B 4523   0.583  18.342   4.662 -0.0351  0.2481  0.1788
    1DIPC   C4B 4524   0.446  18.034   4.284  0.0307 -0.0132  0.0054
    1DIPC   NC3 4525   9.348  19.982   6.114 -0.1840 -0.0893 -0.0461
    1DIPC   PO4 4526   9.305  20.344   6.240 -0.2216 -0.0531  0.2900
    1DIPC   GL1 4527   9.238  20.366   5.848 -0.2013  0.3753  0.0553
    1DIPC   GL2 4528   8.991  20.619   5.721 -0.2246 -0.0021 -0.2844
    1DIPC   C1A 4529   9.358  20.269   5.435 -0.1229 -0.2365 -0.0125
    1DIPC   D2A 4530   8.967  20.191   5.051 -0.1989  0.0452  0.0419
    1DIPC   D3A 4531   8.919  20.102   4.580  0.1564 -0.0877 -0.1008
    1DIPC   C4A 4532   8.699  20.091   4.227  0.1660 -0.0291  0.0914
    1DIPC   C1B 4533   8.901  20.555   5.353  0.1416  0.1117  0.1438
    1DIPC   D2B 4534   8.370  20.562   5.300 -0.2099  0.1067 -0.2143
    1DIPC   D3B 4535   8.161  20.940   5.253  0.0289 -0.0666 -0.0688
    1DIPC   C4B 4536   8.311  21.312   5.276 -0.3902  0.0178 -0.1661
    1DIPC   NC3 4537  18.495  23.576   5.729  0.0657  0.0550 -0.1105
    1DIPC   PO4 4538  18.409  23.972   5.617  0.0307  0.0784  0.3057
    1DIPC   GL1 4539  18.441  24.033   5.191 -0.1355 -0.2769 -0.3760
    1DIPC   GL2 4540  18.160  23.877   5.014 -0.1437  0.1442 -0.1664
    1DIPC   C1A 4541  18.409  24.197   4.688  0.0258  0.1913  0.1790
    1DIPC   D2A 4542  18.457  24.273   4.275  0.5164 -0.0786 -0.2105
    1DIPC   D3A 4543  18.616  24.101   3.863 -0.0347 -0.1810 -0.3290
    1DIPC   C4A 4544  18.768  23.665   3.767 -0.1008  0.3151  0.0703
    1DIPC   C1B 4545  17.846  23.540   4.914  0.2656  0.1850  0.4120
    1DIPC   D2B 4546  17.810  23.201   5.021  0.1147 -0.0413 -0.1884
    1DIPC   D3B 4547  17.859  23.227   4.523  0.0327  0.0541  0.0425
    1DIPC   C4B 4548  17.881  23.491   4.219  0.0058  0.0762  0.0832
    1DIPC   NC3 4549  15.098  22.834   5.234 -0.0155  0.4713  0.1398
    1DIPC   PO4 4550  14.819  23.247   5.222 -0.0423  0.1619  0.2584
    1DIPC   GL1 4551  15.015  23.520   4.893  0.0086 -0.0642 -0.1611
    1DIPC   GL2 4552  15.344  23.451   4.736  0.1358  0.0399  0.1079
    1DIPC   C1A 4553  14.924  23.507   4.490  0.3303 -0.1162 -0.1125
    1DIPC   D2A 4554  14.775  23.614   4.197 -0.0510 -0.0726  0.1124
    1DIPC   D3A 4555  15.090  23.346   4.071  0.2373 -0.1849 -0.0273
    1DIPC   C4A 4556  15.014  23.147   3.757 -0.3510 -0.0822  0.4391
    1DIPC   C1B 4557  15.465  23.207   4.379  0.2957 -0.0372  0.2226
    1DIPC   D2B 4558  15.454  22.882   3.982  0.1257 -0.1267  0.3320
    1DIPC   D3B 4559  15.383  22.997   3.512 -0.3528  0.3110 -0.2240
    1DIPC   C4B 4560  15.752  23.041   3.310  0.1888  0.0447  0.1251
    1DIPC   NC3 4561  18.707  28.622   7.251  0.0347 -0.0167 -0.1281
    1DIPC   PO4 4562  18.351  28.387   7.337  0.0610 -0.2162  0.1861
    1DIPC   GL1 4563  18.317  28.337   6.907  0.0613 -0.0160 -0.0028
    1DIPC   GL2 4564  18.190  28.171   6.683  0.0250  0.0592  0.2547
    1DIPC   C1A 4565  18.243  28.725   6.645 -0.0656 -0.3040 -0.0913
    1DIPC   D2A 4566  18.196  28.830   6.332 -0.3267 -0.0447  0.3340
    1DIPC   D3A 4567  17.831  28.948   5.984 -0.1080  0.0405 -0.1620
    1DIPC   C4A 4568  17.338  28.984   6.064  0.2008  0.1095 -0.3374
    1DIPC   C1B 4569  17.928  28.327   6.255  0.1268  0.0737 -0.1199
    1DIPC   D2B 4570  17.537  28.536   6.166  0.4453  0.2464  0.0204
    1DIPC   D3B 4571  17.629  28.417   5.762 -0.1409  0.2302 -0.0116
    1DIPC   C4B 4572  17.985  28.300   5.728  0.2034 -0.1430 -0.1162
    1DIPC   NC3 4573  17.157  25.890   6.426  0.1215  0.2846  0.1204
    1DIPC   PO4 4574  16.824  25.605   6.158  0.2090  0.0863  0.3347
    1DIPC   GL1 4575  16.580  25.776   5.777  0.0667 -0.3812  0.0915
    1DIPC   GL2 4576  16.421  25.761   5.500  0.0820 -0.0658 -0.1193
    1DIPC   C1A 4577  16.952  25.711   5.486  0.0797 -0.0520  0.0154
    1DIPC   D2A 4578  17.002  25.596   5.135  0.1674  0.2527  0.3699
    1DIPC   D3A 4579  16.769  25.887   5.038  0.2010 -0.0922  0.0531
    1DIPC   C4A 4580  16.548  25.731   4.675 -0.0993 -0.0948  0.0840
    1DIPC   C1B 4581  16.137  25.806   5.069  0.1067  0.0386 -0.2195
    1DIPC   D2B 4582  16.258  26.125   4.758 -0.0916 -0.0903 -0.2992
    1DIPC   D3B 4583  16.700  26.231   4.717 -0.0393  0.0360  0.0969
    1DIPC   C4B 4584  17.049  26.546   4.734 -0.2271  0.2907  0.0104
    1DIPC   NC3 4585  20.952   2.867   7.996  0.3617  0.0004  0.3317
    1DIPC   PO4 4586  21.194   2.906   7.675 -0.1197  0.0869  0.0593
    1DIPC   GL1 4587  21.278   3.225   7.345 -0.1883 -0.2387 -0.0337
    1DIPC   GL2 4588  21.576   3.045   7.260  0.0994 -0.0662  0.1534
    1DIPC   C1A 4589  21.344   3.248   6.885  0.0804  0.0181 -0.0775
    1DIPC   D2A 4590  21.519   3.368   6.554  0.2292  0.2839  0.0457
    1DIPC   D3A 4591  21.906   3.718   6.569 -0.0394  0.1249  0.1456
    1DIPC   C4A 4592  22.004   4.054   6.294 -0.1589  0.1187 -0.0301
    1DIPC   C1B 4593  21.233   2.767   6.950  0.2698 -0.0927 -0.1359
    1DIPC   D2B 4594  20.900   2.930   6.697 -0.2135 -0.0097  0.0489
    1DIPC   D3B 4595  20.829   3.061   6.293 -0.0587  0.2063 -0.0980
    1DIPC   C4B 4596  21.034   3.481   6.332  0.2882 -0.1254 -0.1224
    1DIPC   NC3 4597  15.406  17.706   5.905 -0.1756  0.0237 -0.2236
    1DIPC   PO4 4598  15.131  18.060   5.812 -0.0587 -0.0466 -0.4018
    1DIPC   GL1 4599  15.050  18.184   5.400  0.0065 -0.0927 -0.4436
    1DIPC   GL2 4600  14.808  18.285   5.430 -0.2535  0.1328 -0.4179
    1DIPC   C1A 4601  15.310  18.061   5.010  0.4799  0.0332  0.2475
    1DIPC   D2A 4602  15.614  17.904   4.770  0.0501 -0.4978  0.0803
    1DIPC   D3A 4603  15.703  17.900   4.309 -0.0341  0.1067  0.0529
    1DIPC   C4A 4604  16.106  17.967   4.062  0.2510  0.2974 -0.3001
    1DIPC   C1B 4605  14.793  17.894   5.168 -0.1895 -0.3241  0.1327
    1DIPC   D2B 4606  15.118  17.637   4.836  0.0862 -0.0109 -0.0631
    1DIPC   D3B 4607  15.096  17.910   4.442  0.0671 -0.0325 -0.3140
    1DIPC   C4B 4608  14.927  17.719   4.169  0.4187 -0.1954  0.0062
    1DIPC   NC3 4609  12.290   3.749   7.583  0.1890 -0.0233 -0.0772
    1DIPC   PO4 4610  12.120   3.293   7.733  0.0711 -0.1575  0.0449
    1DIPC   GL1 4611  12.140   3.311   7.339  0.3455  0.0174 -0.1868
    1DIPC   GL2 4612  11.962   3.512   7.222 -0.2744  0.3523 -0.1693
    1DIPC   C1A 4613  12.408   3.230   6.959  0.0941 -0.2489  0.1320
    1DIPC   D2A 4614  12.836   3.304   6.790  0.0708 -0.0460  0.0192
    1DIPC   D3A 4615  12.687   3.614   6.690 -0.0025  0.2602 -0.0543
    1DIPC   C4A 4616  12.806   3.906   6.309 -0.0632 -0.0483 -0.2472
    1DIPC   C1B 4617  11.676   3.502   6.893  0.4749 -0.2132 -0.1636
    1DIPC   D2B 4618  11.457   3.348   6.622 -0.0858  0.1240  0.0131
    1DIPC   D3B 4619  11.139   3.441   6.375 -0.2208 -0.0890  0.1426
    1DIPC   C4B 4620  11.381   3.796   6.284 -0.1943 -0.1897 -0.2212
    1DIPC   NC3 4621  15.626   1.466   7.628 -0.1613  0.3713  0.5338
    1DIPC   PO4 4622  15.856   1.147   7.746  0.0380  0.1430  0.1291
    1DIPC   GL1 4623  15.915   1.144   7.303  0.2368 -0.2794 -0.0399
    1DIPC   GL2 4624  16.206   0.944   7.230  0.1178 -0.0993  0.0086
    1DIPC   C1A 4625  15.629   1.020   6.982 -0.1755  0.1400  0.3126
    1DIPC   D2A 4626  15.616   1.322   6.659  0.1105  0.0197  0.2160
    1DIPC   D3A 4627  15.775   0.956   6.438  0.0710  0.0941 -0.2068
    1DIPC   C4A 4628  15.669   0.619   6.697  0.0610  0.1156 -0.1006
    1DIPC   C1B 4629  16.075   0.793   6.830 -0.2381 -0.0375  0.3020
    1DIPC   D2B 4630  16.330   0.923   6.287 -0.0920  0.0035  0.2049
    1DIPC   D3B 4631  16.346   0.795   5.847 -0.1229 -0.0321 -0.1227
    1DIPC   C4B 4632  16.144   0.409   5.683  0.1363  0.1621 -0.0125
    1DIPC   NC3 4633   9.412  19.709   6.656  0.0894 -0.0946 -0.1609
    1DIPC   PO4 4634   9.048  19.597   6.409 -0.4328  0.0698  0.1519
    1DIPC   GL1 4635   8.997  19.759   5.903 -0.0197  0.0401 -0.0013
    1DIPC   GL2 4636   8.950  19.553   5.657 -0.3593 -0.2090  0.0988
    1DIPC   C1A 4637   8.943  19.987   5.549 -0.0633  0.0540  0.1164
    1DIPC   D2A 4638   8.600  20.058   5.375  0.0851 -0.0813 -0.1445
    1DIPC   D3A 4639   8.421  20.080   4.992 -0.2639 -0.1299  0.0368
    1DIPC   C4A 4640   8.423  19.852   4.597  0.0877  0.1517 -0.1899
    1DIPC   C1B 4641   8.744  19.180   5.671 -0.0572 -0.0018  0.1854
    1DIPC   D2B 4642   8.393  19.119   5.404  0.2157  0.2241 -0.0675
    1DIPC   D3B 4643   8.796  18.855   5.252  0.2255 -0.0321  0.0870
    1DIPC   C4B 4644   9.138  18.837   5.624 -0.0881  0.0758  0.0874
    1DIPC   NC3 4645  23.481   4.745   7.527 -0.0208  0.0134  0.2658
    1DIPC   PO4 4646  23.945   4.834   7.485 -0.3005  0.0577  0.0433
    1DIPC   GL1 4647  23.744   5.020   7.152 -0.2587  0.1554  0.0272
    1DIPC   GL2 4648  23.510   4.879   6.992 -0.1322  0.1992 -0.0232
    1DIPC   C1A 4649  23.732   5.261   6.781  0.2236 -0.2451 -0.0836
    1DIPC   D2A 4650  23.436   5.529   6.569 -0.6441 -0.0376 -0.2724
    1DIPC   D3A 4651  23.098   5.249   6.772  0.2900 -0.0490  0.0627
    1DIPC   C4A 4652  22.735   5.018   6.818  0.0386 -0.1652 -0.0559
    1DIPC   C1B 4653  23.212   4.646   6.755  0.3694  0.0871  0.2354
    1DIPC   D2B 4654  22.988   4.687   6.357  0.1244 -0.0547 -0.2262
    1DIPC   D3B 4655  22.761   5.046   6.250  0.0550  0.1056 -0.0101
    1DIPC   C4B 4656  22.392   5.113   5.939  0.1242 -0.2065  0.0481
    1DIPC   NC3 4657   8.277  16.032   6.895  0.2702 -0.1755  0.1362
    1DIPC   PO4 4658   8.313  16.184   6.402 -0.0614 -0.0037 -0.1817
    1DIPC   GL1 4659   8.317  16.065   5.951 -0.0698 -0.2239 -0.1437
    1DIPC   GL2 4660   8.484  15.927   5.738  0.0198  0.3251  0.0513
    1DIPC   C1A 4661   8.179  16.217   5.437 -0.1152 -0.2208  0.2789
    1DIPC   D2A 4662   8.107  16.410   5.003  0.3662 -0.0694  0.0151
    1DIPC   D3A 4663   8.210  16.859   4.953 -0.0362  0.2931  0.0494
    1DIPC   C4A 4664   8.592  17.026   4.814  0.0312 -0.1371 -0.1721
    1DIPC   C1B 4665   8.557  15.769   5.371  0.0222 -0.1969  0.2562
    1DIPC   D2B 4666   8.650  15.761   4.926 -0.3257  0.2489  0.2154
    1DIPC   D3B 4667   9.130  15.746   4.842  0.0987  0.1433 -0.0504
    1DIPC   C4B 4668   9.475  15.877   5.097  0.2569  0.1811 -0.0881
    1DIPC   NC3 4669   2.999  12.586   6.834  0.1636 -0.0685  0.0683
    1DIPC   PO4 4670   2.519  12.449   6.593 -0.0523  0.1875 -0.0071
    1DIPC   GL1 4671   2.245  12.475   6.272  0.3625  0.2558  0.1656
    1DIPC   GL2 4672   2.083  12.172   6.153  0.2294  0.2039 -0.3439
    1DIPC   C1A 4673   2.069  12.610   5.926 -0.0848 -0.1452  0.2263
    1DIPC   D2A 4674   1.902  12.381   5.533  0.1638 -0.1775 -0.1664
    1DIPC   D3A 4675   1.854  12.679   5.383  0.0250  0.2043  0.0939
    1DIPC   C4A 4676   2.233  12.876   5.380  0.0563 -0.0493  0.0054
    1DIPC   C1B 4677   2.308  12.172   5.760  0.0521 -0.2063 -0.2802
    1DIPC   D2B 4678   2.339  12.411   5.335 -0.2893  0.0542  0.0692
    1DIPC   D3B 4679   2.534  12.283   4.885  0.1223  0.0067  0.0994
    1DIPC   C4B 4680   2.541  12.042   4.489 -0.5253  0.1274 -0.1242
    1DIPC   NC3 4681   6.522   9.135   7.088 -0.0270  0.0171  0.3773
    1DIPC   PO4 4682   6.294   9.437   7.021 -0.3947 -0.0584  0.0302
    1DIPC   GL1 4683   6.088   9.619   6.538  0.0753 -0.2542  0.0283
    1DIPC   GL2 4684   5.713   9.738   6.509  0.0946 -0.0186 -0.1279
    1DIPC   C1A 4685   6.276   9.865   6.151  0.1062  0.0867  0.1994
    1DIPC   D2A 4686   6.321  10.212   5.963 -0.2094  0.1651  0.2688
    1DIPC   D3A 4687   6.652  10.332   5.992 -0.0659 -0.2838 -0.0989
    1DIPC   C4A 4688   6.707  10.756   6.140  0.0771  0.0764  0.2353
    1DIPC   C1B 4689   5.357   9.854   6.215 -0.1994 -0.0425  0.2820
    1DIPC   D2B 4690   5.056   9.719   5.829  0.4625 -0.2755  0.0567
    1DIPC   D3B 4691   4.723   9.627   5.478  0.0930  0.0535  0.1537
    1DIPC   C4B 4692   4.934   9.640   5.084  0.0147 -0.1157 -0.1045
    1DIPC   NC3 4693  29.658   7.903   6.656  0.0389  0.1832  0.0021
    1DIPC   PO4 4694   0.115   7.744   6.850  0.0273 -0.0778 -0.2314
    1DIPC   GL1 4695   0.287   7.727   6.477 -0.0457  0.1278  0.4603
    1DIPC   GL2 4696   0.664   7.681   6.525  0.1004 -0.2042 -0.2556
    1DIPC   C1A 4697   0.210   7.548   6.030 -0.0589  0.0601  0.1252
    1DIPC   D2A 4698   0.357   7.628   5.534 -0.2432 -0.1281 -0.1598
    1DIPC   D3A 4699   0.458   7.406   5.226  0.0218  0.0981 -0.1831
    1DIPC   C4A 4700   0.652   7.641   4.803  0.0063 -0.1481 -0.0170
    1DIPC   C1B 4701   0.558   7.246   6.215  0.0620  0.2095  0.2044
    1DIPC   D2B 4702   0.545   7.099   5.743  0.1354  0.1547  0.0352
    1DIPC   D3B 4703   0.214   7.018   5.595 -0.0813  0.1828 -0.0399
    1DIPC   C4B 4704  29.564   7.035   5.551  0.1761  0.1566 -0.1832
    1DIPC   NC3 4705  12.104   9.193   7.176  0.0111  0.0763 -0.0579
    1DIPC   PO4 4706  11.735   9.213   6.934 -0.0299 -0.0266 -0.0059
    1DIPC   GL1 4707  11.764   9.141   6.518  0.0033 -0.0448  0.2049
    1DIPC   GL2 4708  11.507   8.915   6.511  0.1046 -0.1858 -0.1244
    1DIPC   C1A 4709  12.019   9.413   6.237 -0.1844  0.0670 -0.2157
    1DIPC   D2A 4710  12.121   9.348   5.830 -0.1345  0.1583  0.0173
    1DIPC   D3A 4711  11.773   9.687   5.890  0.2918 -0.0015  0.1313
    1DIPC   C4A 4712  11.675   9.703   5.518 -0.1505  0.0537 -0.0345
    1DIPC   C1B 4713  11.493   8.642   6.220 -0.0979  0.0551 -0.0076
    1DIPC   D2B 4714  11.663   8.441   5.824  0.2159  0.2247  0.2309
    1DIPC   D3B 4715  11.251   8.201   5.700 -0.0045  0.3761 -0.1633
    1DIPC   C4B 4716  11.200   7.687   5.619  0.1565  0.1303  0.0688
    1DIPC   NC3 4717  12.101   0.182   7.611 -0.1869  0.2388 -0.2261
    1DIPC   PO4 4718  11.968   0.311   7.217  0.0577  0.0158 -0.4554
    1DIPC   GL1 4719  12.172   0.264   6.814 -0.2525  0.0049 -0.1668
    1DIPC   GL2 4720  11.824   0.105   6.784  0.1325  0.0990 -0.3045
    1DIPC   C1A 4721  12.524   0.132   6.605  0.0204 -0.0783 -0.0375
    1DIPC   D2A 4722  12.534  29.668   6.259  0.1876  0.1134  0.1782
    1DIPC   D3A 4723  12.301  29.806   5.867  0.1612  0.0053 -0.2403
    1DIPC   C4A 4724  12.267   0.340   5.629 -0.4616  0.0437 -0.1919
    1DIPC   C1B 4725  11.707   0.268   6.485  0.3080 -0.0346  0.0282
    1DIPC   D2B 4726  11.881   0.545   6.204  0.1466  0.4296  0.2286
    1DIPC   D3B 4727  12.341   0.632   6.089  0.0087  0.2934  0.0425
    1DIPC   C4B 4728  12.386   0.801   5.672  0.2577  0.0171  0.2604
    1DIPC   NC3 4729   9.952  11.745   6.660 -0.1011 -0.0488 -0.0002
    1DIPC   PO4 4730   9.566  11.805   6.539  0.2236 -0.0008  0.0177
    1DIPC   GL1 4731   9.423  12.096   6.114 -0.2416 -0.1298  0.1304
    1DIPC   GL2 4732   9.660  12.468   6.134  0.0882 -0.2045  0.0462
    1DIPC   C1A 4733   9.255  12.218   5.754 -0.1298 -0.1044  0.2331
    1DIPC   D2A 4734   9.394  12.490   5.455  0.0724  0.3633 -0.2635
    1DIPC   D3A 4735   9.216  12.713   5.125 -0.1582  0.0709  0.0243
    1DIPC   C4A 4736   8.849  12.593   4.887  0.0877  0.0675 -0.1543
    1DIPC   C1B 4737   9.786  12.256   5.667  0.0489 -0.1898 -0.3450
    1DIPC   D2B 4738   9.737  12.201   5.237 -0.1112  0.2542  0.1705
    1DIPC   D3B 4739   9.876  12.566   5.071  0.0676  0.0241  0.1076
    1DIPC   C4B 4740  10.041  12.467   4.599  0.0290  0.1742  0.3424
    1DIPC   NC3 4741   0.173  14.239   6.476 -0.1258  0.2608  0.0430
    1DIPC   PO4 4742  29.846  14.527   6.412 -0.2937  0.0448  0.0536
    1DIPC   GL1 4743  29.617  14.397   6.044 -0.1590  0.3258  0.2655
    1DIPC   GL2 4744  29.429  14.138   5.867 -0.0431 -0.0824  0.1495
    1DIPC   C1A 4745  29.560  14.517   5.582 -0.0133  0.1968  0.1064
    1DIPC   D2A 4746  29.564  14.454   5.081 -0.0746  0.0526 -0.2638
    1DIPC   D3A 4747  29.661  14.662   4.716  0.0894 -0.0295 -0.0659
    1DIPC   C4A 4748  29.712  15.108   4.575 -0.0957  0.1061  0.0240
    1DIPC   C1B 4749  29.390  14.000   5.388 -0.2247  0.3076 -0.2664
    1DIPC   D2B 4750  29.472  13.883   5.025 -0.0257 -0.2688 -0.1079
    1DIPC   D3B 4751  29.522  13.631   4.648 -0.0004  0.1740 -0.1366
    1DIPC   C4B 4752  29.152  13.287   4.720 -0.0654 -0.0803 -0.0238
    1DIPC   NC3 4753  23.172   5.974   7.802 -0.2504  0.3050  0.3202
    1DIPC   PO4 4754  23.046   6.327   7.563  0.0668 -0.0028  0.1883
    1DIPC   GL1 4755  23.202   6.226   7.135  0.1222 -0.0813  0.0855
    1DIPC   GL2 4756  22.870   6.133   7.119 -0.2198  0.0468 -0.2247
    1DIPC   C1A 4757  23.297   5.952   6.886  0.1405 -0.1377  0.0515
    1DIPC   D2A 4758  23.336   6.102   6.520 -0.2059  0.0253 -0.0882
    1DIPC   D3A 4759  22.944   6.282   6.555  0.2730 -0.1173  0.1631
    1DIPC   C4A 4760  22.572   6.478   6.379 -0.0399  0.0325  0.0737
    1DIPC   C1B 4761  22.521   6.115   6.765 -0.0270  0.3214 -0.1814
    1DIPC   D2B 4762  22.100   6.315   6.612 -0.1637  0.0646  0.0032
    1DIPC   D3B 4763  21.730   6.305   6.347 -0.1646 -0.1510 -0.0346
    1DIPC   C4B 4764  21.432   6.601   6.247  0.0596 -0.0363  0.1528
    1DIPC   NC3 4765   8.235  10.333   6.464  0.2853  0.2084  0.0540
    1DIPC   PO4 4766   7.911   9.996   6.590 -0.0989  0.0682  0.2756
    1DIPC   GL1 4767   8.037  10.018   6.110  0.0997 -0.0913  0.0329
    1DIPC   GL2 4768   8.353  10.134   6.022  0.1342 -0.2459  0.1226
    1DIPC   C1A 4769   7.832  10.083   5.720  0.1892 -0.0655  0.0434
    1DIPC   D2A 4770   7.867  10.334   5.293 -0.2294  0.1219 -0.0324
    1DIPC   D3A 4771   7.650   9.960   5.151 -0.0936 -0.1784  0.0982
    1DIPC   C4A 4772   7.798   9.848   4.725  0.3406  0.1575 -0.0378
    1DIPC   C1B 4773   8.469   9.970   5.594 -0.0106  0.2318  0.2641
    1DIPC   D2B 4774   8.251   9.941   5.161 -0.2175 -0.0717  0.5597
    1DIPC   D3B 4775   8.645   9.951   4.927 -0.2108 -0.4080  0.0176
    1DIPC   C4B 4776   8.927   9.645   4.934 -0.0211  0.0904 -0.3886
    1DIPC   NC3 4777   9.950  28.653   6.572  0.3466  0.2287  0.1193
    1DIPC   PO4 4778   9.710  28.889   6.319  0.0914 -0.4151 -0.1042
    1DIPC   GL1 4779   9.854  29.083   5.946 -0.0441  0.1059 -0.2039
    1DIPC   GL2 4780   9.760  29.077   5.581  0.1422 -0.0447  0.3687
    1DIPC   C1A 4781  10.215  28.914   5.623  0.0557  0.0496 -0.0325
    1DIPC   D2A 4782  10.413  28.982   5.257  0.1720  0.0018 -0.1539
    1DIPC   D3A 4783  10.666  28.757   5.074 -0.1916 -0.0216 -0.2160
    1DIPC   C4A 4784  10.538  28.371   5.031  0.2266  0.0888  0.1214
    1DIPC   C1B 4785   9.872  29.523   5.608  0.1024 -0.0949 -0.0380
    1DIPC   D2B 4786  10.034  29.842   5.433  0.0302 -0.0462  0.1003
    1DIPC   D3B 4787   9.714  29.846   5.117 -0.1635 -0.2183 -0.2086
    1DIPC   C4B 4788   9.650  29.542   4.870  0.1055 -0.1257 -0.1244
    1DIPC   NC3 4789  22.931  23.695   6.519  0.0741  0.1751 -0.1252
    1DIPC   PO4 4790  23.415  23.629   6.673  0.1421 -0.2197 -0.2816
    1DIPC   GL1 4791  23.739  23.430   6.316  0.1281  0.1552 -0.0563
    1DIPC   GL2 4792  24.068  23.163   6.385 -0.1638 -0.3348 -0.2009
    1DIPC   C1A 4793  23.878  23.661   5.935 -0.1687  0.4817 -0.0735
    1DIPC   D2A 4794  23.754  23.451   5.518  0.4209 -0.0883 -0.3820
    1DIPC   D3A 4795  24.111  23.335   5.243 -0.1616  0.0505 -0.2831
    1DIPC   C4A 4796  24.496  23.558   5.065  0.1122 -0.0619  0.1138
    1DIPC   C1B 4797  23.919  23.110   5.951  0.2170  0.1538  0.0794
    1DIPC   D2B 4798  23.703  22.869   5.627  0.1719  0.4134  0.1552
    1DIPC   D3B 4799  24.162  22.854   5.540 -0.0291  0.1156  0.1550
    1DIPC   C4B 4800  24.409  22.945   5.845  0.0324  0.2199 -0.2449
    1DIPC   NC3 4801  11.034  12.962   6.264 -0.2721 -0.2114 -0.0942
    1DIPC   PO4 4802  10.669  12.896   6.105 -0.1577  0.0801 -0.1515
    1DIPC   GL1 4803  10.648  12.570   5.877 -0.0388  0.1680  0.2201
    1DIPC   GL2 4804  10.626  12.867   5.621 -0.1357 -0.1155 -0.0006
    1DIPC   C1A 4805  10.900  12.334   5.634  0.3779 -0.0028  0.2410
    1DIPC   D2A 4806  11.233  12.119   5.464 -0.0317  0.0825  0.1448
    1DIPC   D3A 4807  11.343  12.342   5.082 -0.1284 -0.1891  0.0067
    1DIPC   C4A 4808  11.447  12.181   4.610 -0.0992  0.1583 -0.2008
    1DIPC   C1B 4809  10.580  12.747   5.135  0.2441 -0.0299 -0.2582
    1DIPC   D2B 4810  10.806  12.638   4.842 -0.2831  0.0951 -0.5079
    1DIPC   D3B 4811  10.821  12.154   5.053 -0.1478  0.1121 -0.4820
    1DIPC   C4B 4812  11.133  11.901   4.992 -0.1614 -0.2498  0.1927
    1DIPC   NC3 4813  12.121  17.394   6.056 -0.0004 -0.0687 -0.0643
    1DIPC   PO4 4814  12.185  17.741   5.816 -0.3954 -0.2549 -0.0886
    1DIPC   GL1 4815  11.984  17.936   5.430 -0.0171  0.3101  0.0004
    1DIPC   GL2 4816  12.339  17.766   5.291 -0.1500 -0.0521  0.0273
    1DIPC   C1A 4817  11.983  18.357   5.054  0.2918 -0.2050 -0.3868
    1DIPC   D2A 4818  12.175  18.657   4.688 -0.0374 -0.1386  0.0732
    1DIPC   D3A 4819  12.513  18.989   4.488  0.2385 -0.0326  0.2050
    1DIPC   C4A 4820  12.364  19.153   4.154  0.2893  0.1770  0.2492
    1DIPC   C1B 4821  12.142  17.748   4.892 -0.2932 -0.3079  0.0431
    1DIPC   D2B 4822  12.149  17.550   4.405 -0.0096 -0.1552 -0.1720
    1DIPC   D3B 4823  12.467  17.817   4.257 -0.1867 -0.0107  0.4127
    1DIPC   C4B 4824  12.985  17.768   4.377  0.0521  0.2951 -0.3533
    1DIPC   NC3 4825   8.542   2.475   6.717 -0.0775 -0.0955  0.3249
    1DIPC   PO4 4826   8.189   2.586   6.827  0.2080 -0.1338  0.5229
    1DIPC   GL1 4827   8.172   2.637   6.351 -0.1260  0.1322 -0.0729
    1DIPC   GL2 4828   8.137   3.008   6.207 -0.1997  0.0555 -0.2919
    1DIPC   C1A 4829   8.044   2.632   5.970  0.1327 -0.1030  0.3786
    1DIPC   D2A 4830   7.872   2.621   5.557 -0.2379  0.0560  0.4977
    1DIPC   D3A 4831   7.924   2.491   5.082  0.0082  0.3708  0.1526
    1DIPC   C4A 4832   8.288   2.299   5.086  0.0770 -0.2653  0.1096
    1DIPC   C1B 4833   8.474   3.098   5.892  0.0196  0.0208  0.1813
    1DIPC   D2B 4834   8.929   3.241   5.840 -0.3178 -0.0364  0.1362
    1DIPC   D3B 4835   8.773   2.781   5.574 -0.0513  0.1506  0.0970
    1DIPC   C4B 4836   8.342   2.624   5.525 -0.2795  0.0401  0.0532
    1DIPC   NC3 4837   7.522  14.110   6.779 -0.2275 -0.0099 -0.0876
    1DIPC   PO4 4838   7.314  14.174   6.432 -0.0378  0.0891 -0.2010
    1DIPC   GL1 4839   7.401  13.933   6.003  0.0916 -0.2659  0.1378
    1DIPC   GL2 4840   7.664  14.031   5.843 -0.2499  0.1024  0.0356
    1DIPC   C1A 4841   7.430  13.694   5.551  0.0025 -0.2649  0.0732
    1DIPC   D2A 4842   7.269  13.706   5.185 -0.1258  0.0216  0.0336
    1DIPC   D3A 4843   7.337  13.525   4.734  0.3947 -0.1004  0.0301
    1DIPC   C4A 4844   7.386  13.665   4.361  0.1387  0.0619 -0.2139
    1DIPC   C1B 4845   7.781  14.125   5.381 -0.4389 -0.3488  0.2466
    1DIPC   D2B 4846   7.834  14.410   5.044  0.2154 -0.2386 -0.0547
    1DIPC   D3B 4847   8.165  14.132   4.984  0.0160  0.0848  0.1324
    1DIPC   C4B 4848   8.278  14.062   5.365  0.0457  0.0847  0.2629
    1DIPC   NC3 4849  17.478   0.461   7.672 -0.1707 -0.2461 -0.1340
    1DIPC   PO4 4850  17.280   0.864   7.828  0.1888 -0.0121 -0.1339
    1DIPC   GL1 4851  17.590   0.931   7.407  0.2436  0.0235  0.1156
    1DIPC   GL2 4852  17.460   0.788   7.175 -0.1237  0.0689 -0.1912
    1DIPC   C1A 4853  17.911   1.032   7.162 -0.0042  0.0235  0.1305
    1DIPC   D2A 4854  18.182   1.398   7.071  0.0843 -0.0323  0.2057
    1DIPC   D3A 4855  18.571   1.139   7.201  0.0736  0.1896 -0.0547
    1DIPC   C4A 4856  18.823   1.000   6.875 -0.0676 -0.2718 -0.1544
    1DIPC   C1B 4857  17.650   0.609   6.910  0.2234 -0.0115 -0.1884
    1DIPC   D2B 4858  17.692   0.349   6.517  0.1425 -0.0051  0.0012
    1DIPC   D3B 4859  17.878   0.589   6.075  0.2083  0.2191  0.0389
    1DIPC   C4B 4860  18.032   0.493   5.779  0.2253  0.4227  0.2221
    1DIPC   NC3 4861  24.463  25.545   6.472 -0.5820 -0.2195 -0.0360
    1DIPC   PO4 4862  24.888  25.714   6.583  0.1463  0.0793 -0.2266
    1DIPC   GL1 4863  24.944  25.706   6.146  0.0040 -0.0671 -0.2482
    1DIPC   GL2 4864  24.655  25.809   5.929  0.0894 -0.1730 -0.0828
    1DIPC   C1A 4865  25.116  25.613   5.739 -0.1489 -0.2128  0.3637
    1DIPC   D2A 4866  25.327  25.488   5.352 -0.1402  0.0195  0.1252
    1DIPC   D3A 4867  25.072  25.278   5.098 -0.4197  0.0355  0.1613
    1DIPC   C4A 4868  24.815  24.977   5.077  0.0554 -0.0611 -0.0535
    1DIPC   C1B 4869  24.318  25.876   5.624  0.3012  0.1543  0.3811
    1DIPC   D2B 4870  23.823  25.989   5.756  0.0542  0.3087 -0.0560
    1DIPC   D3B 4871  24.010  26.291   5.464  0.0871 -0.1428  0.0603
    1DIPC   C4B 4872  23.978  26.359   5.018 -0.0009 -0.3657 -0.0785
    1DIPC   NC3 4873   2.043  11.336   6.378 -0.1568 -0.1641 -0.1033
    1DIPC   PO4 4874   2.234  10.951   6.312  0.0997  0.2147 -0.1051
    1DIPC   GL1 4875   2.361  11.092   5.954 -0.1434  0.0302 -0.1356
    1DIPC   GL2 4876   2.584  11.335   6.017  0.3898 -0.3512 -0.0956
    1DIPC   C1A 4877   2.567  10.817   5.623 -0.1598 -0.1249  0.2357
    1DIPC   D2A 4878   2.954  10.683   5.485  0.1064 -0.0806 -0.1803
    1DIPC   D3A 4879   2.919  10.203   5.547 -0.1494 -0.3153  0.2500
    1DIPC   C4A 4880   3.273   9.960   5.453  0.2155  0.1877  0.5246
    1DIPC   C1B 4881   2.567  11.381   5.528 -0.0642 -0.0664  0.1328
    1DIPC   D2B 4882   2.598  11.229   5.056  0.2725  0.1416  0.2547
    1DIPC   D3B 4883   2.251  11.359   4.887 -0.2425 -0.0828 -0.0747
    1DIPC   C4B 4884   2.107  11.602   5.223  0.0774 -0.0940 -0.0114
    1DIPC   NC3 4885   5.865  20.553   6.229  0.1811 -0.0710 -0.2250
    1DIPC   PO4 4886   6.076  20.349   5.947  0.1140  0.0286  0.0540
    1DIPC   GL1 4887   6.104  20.396   5.559 -0.0354  0.1986  0.2077
    1DIPC   GL2 4888   6.257  20.177   5.355  0.1418  0.1121  0.2263
    1DIPC   C1A 4889   5.829  20.548   5.273 -0.2098  0.1235 -0.1029
    1DIPC   D2A 4890   5.841  21.018   5.301  0.2555 -0.3118  0.0020
    1DIPC   D3A 4891   5.510  20.910   5.101  0.1399  0.1339 -0.1947
    1DIPC   C4A 4892   5.284  20.530   5.279  0.1255 -0.0170  0.1902
    1DIPC   C1B 4893   6.093  19.817   5.067  0.0023 -0.0748  0.0855
    1DIPC   D2B 4894   6.166  19.713   4.678 -0.1530 -0.1518 -0.0594
    1DIPC   D3B 4895   5.980  19.800   4.203 -0.2798 -0.1186 -0.2459
    1DIPC   C4B 4896   6.398  19.729   3.886  0.1449 -0.1165  0.0735
    1DIPC   NC3 4897   0.406   4.053   6.948  0.3974  0.2928 -0.1417
    1DIPC   PO4 4898   0.294   4.386   6.840  0.0830  0.0045 -0.0859
    1DIPC   GL1 4899   0.225   4.249   6.502 -0.0652 -0.0780 -0.1244
    1DIPC   GL2 4900  29.721   4.196   6.391  0.5153  0.0076 -0.3757
    1DIPC   C1A 4901   0.284   4.340   6.010 -0.0451 -0.2466 -0.0575
    1DIPC   D2A 4902   0.270   4.322   5.507 -0.0135 -0.2260 -0.2082
    1DIPC   D3A 4903   0.125   4.628   5.631 -0.1857 -0.1215  0.3416
    1DIPC   C4A 4904   0.014   4.902   5.220  0.0153 -0.0984 -0.1075
    1DIPC   C1B 4905   0.121   3.844   6.179 -0.0158 -0.0972  0.0648
    1DIPC   D2B 4906   0.199   3.728   5.675 -0.3634  0.0723  0.2926
    1DIPC   D3B 4907   0.164   3.436   5.319 -0.2271 -0.0334 -0.0417
    1DIPC   C4B 4908  29.627   3.384   5.021  0.1052 -0.1595 -0.0301
    1DIPC   NC3 4909  22.531  19.650   7.028 -0.0478  0.0700  0.0646
    1DIPC   PO4 4910  22.795  19.684   6.618 -0.0812 -0.0934 -0.2612
    1DIPC   GL1 4911  22.634  19.744   6.262  0.1917  0.0071 -0.0816
    1DIPC   GL2 4912  22.713  19.601   6.012  0.0480  0.2843  0.1447
    1DIPC   C1A 4913  22.653  20.135   6.042  0.1333 -0.0159 -0.0057
    1DIPC   D2A 4914  22.420  20.456   5.735  0.0617 -0.2055  0.0919
    1DIPC   D3A 4915  22.287  20.134   5.522 -0.2357 -0.3456 -0.2708
    1DIPC   C4A 4916  22.260  19.749   5.504  0.0875  0.0325 -0.2801
    1DIPC   C1B 4917  22.712  19.829   5.617 -0.3549 -0.0683 -0.4676
    1DIPC   D2B 4918  22.852  20.260   5.489 -0.2009 -0.1447 -0.0619
    1DIPC   D3B 4919  23.135  20.148   5.173 -0.0202 -0.0230 -0.1338
    1DIPC   C4B 4920  22.942  19.876   4.782  0.0009  0.0245  0.0223
    1DIPC   NC3 4921  13.293   6.311   8.045 -0.0655  0.1202  0.0813
    1DIPC   PO4 4922  13.171   6.528   7.686  0.2834  0.0909  0.0596
    1DIPC   GL1 4923  12.826   6.499   7.444  0.0209 -0.0057  0.1343
    1DIPC   GL2 4924  12.630   6.259   7.305 -0.1911  0.0093  0.1441
    1DIPC   C1A 4925  12.486   6.752   7.152  0.3449 -0.3082  0.0273
    1DIPC   D2A 4926  12.105   6.922   6.744  0.0510  0.0933 -0.2025
    1DIPC   D3A 4927  12.078   7.136   7.117 -0.3322  0.1593 -0.1930
    1DIPC   C4A 4928  12.302   7.017   7.573 -0.1497 -0.0955 -0.0491
    1DIPC   C1B 4929  12.760   6.274   6.909  0.2669  0.0325 -0.3085
    1DIPC   D2B 4930  12.826   6.294   6.461 -0.0020  0.2258 -0.2855
    1DIPC   D3B 4931  12.969   5.948   6.623  0.0666  0.0106 -0.4401
    1DIPC   C4B 4932  13.414   5.784   6.457  0.3435  0.2355  0.0770
    1DIPC   NC3 4933  28.103   3.500   7.024 -0.0076  0.3804  0.1364
    1DIPC   PO4 4934  28.449   3.537   6.757  0.1138  0.3738 -0.2902
    1DIPC   GL1 4935  28.387   3.406   6.354  0.3387 -0.2817  0.0828
    1DIPC   GL2 4936  28.266   3.150   6.232  0.0408 -0.3152 -0.0502
    1DIPC   C1A 4937  28.390   3.611   5.976 -0.0678 -0.1072  0.2212
    1DIPC   D2A 4938  28.387   4.086   5.785  0.1607 -0.3497  0.1616
    1DIPC   D3A 4939  28.306   3.857   5.418 -0.0952  0.1895 -0.0347
    1DIPC   C4A 4940  28.176   4.009   4.978 -0.1128 -0.1126 -0.4328
    1DIPC   C1B 4941  28.109   3.024   5.917 -0.0244  0.1026  0.1622
    1DIPC   D2B 4942  28.046   2.651   5.809 -0.1276  0.1923 -0.1796
    1DIPC   D3B 4943  28.323   2.830   5.487 -0.2086  0.0490 -0.2342
    1DIPC   C4B 4944  28.754   2.947   5.492  0.1563  0.0305  0.0283
    1DIPC   NC3 4945   2.636   7.860   6.970 -0.0733 -0.1288 -0.2272
    1DIPC   PO4 4946   2.737   8.310   6.809  0.2531 -0.1826 -0.5421
    1DIPC   GL1 4947   2.954   8.302   6.502 -0.2569 -0.1106 -0.1542
    1DIPC   GL2 4948   3.029   7.947   6.302  0.1793 -0.0142  0.0376
    1DIPC   C1A 4949   3.220   8.396   6.179  0.1087  0.0678  0.2425
    1DIPC   D2A 4950   3.109   8.483   5.789  0.2630  0.1577  0.1524
    1DIPC   D3A 4951   3.228   8.405   5.332 -0.0010  0.0298  0.1730
    1DIPC   C4A 4952   3.204   7.940   5.136  0.1468 -0.1412  0.1192
    1DIPC   C1B 4953   2.742   8.215   6.079  0.3007 -0.0603  0.0831
    1DIPC   D2B 4954   2.644   8.301   5.596  0.3896  0.1836 -0.0207
    1DIPC   D3B 4955   3.006   8.004   5.690  0.4482 -0.0141  0.0415
    1DIPC   C4B 4956   2.866   7.729   5.897  0.0847  0.4000  0.0097
    1DIPC   NC3 4957  28.475  27.946   5.904  0.1650 -0.1574  0.1341
    1DIPC   PO4 4958  28.620  27.581   5.743 -0.0499  0.1693 -0.0191
    1DIPC   GL1 4959  28.490  27.813   5.441  0.0537 -0.0104 -0.1326
    1DIPC   GL2 4960  28.421  28.189   5.421  0.0566  0.1159 -0.2448
    1DIPC   C1A 4961  28.658  27.697   5.059 -0.2431 -0.4410 -0.0158
    1DIPC   D2A 4962  29.046  27.631   4.812  0.2285 -0.3893  0.2462
    1DIPC   D3A 4963  28.889  27.614   4.310  0.2256 -0.3066  0.1469
    1DIPC   C4A 4964  29.247  27.738   4.173  0.2206 -0.1042 -0.3425
    1DIPC   C1B 4965  28.732  28.397   5.489 -0.0017 -0.1718 -0.0478
    1DIPC   D2B 4966  29.048  28.341   5.400  0.0925 -0.0516  0.0870
    1DIPC   D3B 4967  28.656  28.239   5.005 -0.0258  0.1511 -0.0209
    1DIPC   C4B 4968  28.798  28.090   4.680 -0.0651  0.0339 -0.2732
    1DIPC   NC3 4969  12.398  18.608   5.848 -0.3203  0.1132 -0.0625
    1DIPC   PO4 4970  12.080  18.409   5.691  0.1446  0.0150  0.1224
    1DIPC   GL1 4971  11.647  18.435   5.495 -0.3369 -0.2241 -0.0527
    1DIPC   GL2 4972  11.379  18.483   5.703  0.1529 -0.3875 -0.0892
    1DIPC   C1A 4973  11.376  18.410   5.118  0.1047 -0.0454  0.1409
    1DIPC   D2A 4974  11.254  18.181   4.670  0.0320 -0.1585 -0.0608
    1DIPC   D3A 4975  11.564  18.004   4.405 -0.2117  0.2769 -0.2269
    1DIPC   C4A 4976  12.030  18.154   4.521  0.1829 -0.3400 -0.1576
    1DIPC   C1B 4977  11.180  18.717   5.405  0.2352  0.0018  0.0063
    1DIPC   D2B 4978  11.225  18.875   5.065  0.1572 -0.3202 -0.2046
    1DIPC   D3B 4979  11.323  18.738   4.630 -0.1584 -0.0061 -0.0942
    1DIPC   C4B 4980  11.707  18.491   4.696  0.3360 -0.2298  0.0124
    1DIPC   NC3 4981   3.447  22.128   6.274 -0.2090  0.1297 -0.0762
    1DIPC   PO4 4982   3.259  21.854   5.978 -0.1940 -0.1192  0.1569
    1DIPC   GL1 4983   3.488  21.823   5.574 -0.0442 -0.1657 -0.3122
    1DIPC   GL2 4984   3.628  22.181   5.604  0.3812  0.0643 -0.1277
    1DIPC   C1A 4985   3.256  21.877   5.238 -0.1959 -0.0892 -0.0419
    1DIPC   D2A 4986   3.222  21.594   4.844 -0.1820 -0.1475  0.1067
    1DIPC   D3A 4987   3.245  21.440   4.463  0.0592 -0.1918  0.1843
    1DIPC   C4A 4988   3.123  20.990   4.506  0.3463 -0.0213  0.3156
    1DIPC   C1B 4989   3.468  22.352   5.179  0.0459  0.1156  0.1263
    1DIPC   D2B 4990   3.421  22.475   4.798 -0.0664 -0.0833  0.0139
    1DIPC   D3B 4991   3.333  22.085   4.690 -0.0355  0.1168  0.1891
    1DIPC   C4B 4992   2.957  22.001   4.742  0.0380 -0.0269  0.0259
    1DIPC   NC3 4993  18.987  18.147   5.976  0.0359 -0.1492  0.1907
    1DIPC   PO4 4994  18.645  17.911   5.929 -0.2514 -0.0425  0.0297
    1DIPC   GL1 4995  18.572  17.758   5.595  0.0673 -0.2842  0.1937
    1DIPC   GL2 4996  18.277  17.879   5.492 -0.2614 -0.2301  0.1049
    1DIPC   C1A 4997  18.614  17.511   5.215 -0.2517 -0.1466 -0.0398
    1DIPC   D2A 4998  18.677  17.480   4.789 -0.2224 -0.0090  0.2441
    1DIPC   D3A 4999  18.700  17.799   4.558  0.1185  0.3702 -0.1039
    1DIPC   C4A 5000  18.307  17.797   4.266 -0.0538  0.4233 -0.1925
    1DIPC   C1B 5001  18.136  17.728   5.094 -0.3066  0.2427 -0.0027
    1DIPC   D2B 5002  18.211  17.556   4.692  0.0317  0.1843  0.3847
    1DIPC   D3B 5003  17.821  17.854   4.619 -0.1789 -0.2223 -0.1999
    1DIPC   C4B 5004  17.786  18.076   4.373  0.0569  0.3477  0.0161
    1DIPC   NC3 5005   4.772  12.121   5.804  0.3389  0.0320 -0.1151
    1DIPC   PO4 5006   4.423  12.439   5.929 -0.1233 -0.0626 -0.0364
    1DIPC   GL1 5007   4.320  12.374   5.473 -0.0997  0.0160 -0.0102
    1DIPC   GL2 5008   4.507  12.167   5.335  0.1441 -0.0964 -0.0031
    1DIPC   C1A 5009   4.237  12.536   5.062  0.1198 -0.1860 -0.1354
    1DIPC   D2A 5010   4.015  12.882   4.841  0.1874  0.1572  0.2871
    1DIPC   D3A 5011   3.848  12.836   5.242  0.0037  0.0380 -0.1411
    1DIPC   C4A 5012   3.468  12.804   5.236  0.2719 -0.0409 -0.2612
    1DIPC   C1B 5013   4.496  12.150   4.940 -0.3156 -0.2265 -0.0420
    1DIPC   D2B 5014   4.414  12.432   4.529 -0.0170 -0.0124  0.1361
    1DIPC   D3B 5015   4.657  12.680   4.228  0.3074 -0.6459  0.2757
    1DIPC   C4B 5016   5.094  12.576   4.056  0.0843 -0.1801 -0.1531
    1DIPC   NC3 5017   5.109   5.820   6.645  0.4055 -0.0885  0.0016
    1DIPC   PO4 5018   4.815   6.146   6.519 -0.0813 -0.0897 -0.1208
    1DIPC   GL1 5019   4.550   6.202   6.172 -0.3326  0.1730 -0.2431
    1DIPC   GL2 5020   4.451   6.477   6.009  0.2736  0.2352 -0.0370
    1DIPC   C1A 5021   4.657   6.126   5.758 -0.0284 -0.4076  0.1713
    1DIPC   D2A 5022   4.609   6.070   5.355 -0.0370  0.1059 -0.1205
    1DIPC   D3A 5023   4.369   5.718   5.292  0.1165 -0.1913 -0.0747
    1DIPC   C4A 5024   4.107   5.813   5.087 -0.1425 -0.0767  0.1373
    1DIPC   C1B 5025   4.365   6.559   5.543  0.0181  0.0638 -0.0869
    1DIPC   D2B 5026   4.071   6.538   5.356  0.3769 -0.1662 -0.2256
    1DIPC   D3B 5027   4.190   6.343   4.991 -0.0285 -0.0466  0.2357
    1DIPC   C4B 5028   4.457   6.081   4.821 -0.1127 -0.0561 -0.0752
    1DIPC   NC3 5029  28.081  26.488   6.027  0.0806 -0.0882  0.0487
    1DIPC   PO4 5030  28.434  26.222   5.891 -0.1220  0.0099 -0.0923
    1DIPC   GL1 5031  28.230  26.458   5.497  0.2983  0.1338  0.1134
    1DIPC   GL2 5032  28.410  26.748   5.359  0.1035 -0.0720  0.1052
    1DIPC   C1A 5033  27.903  26.414   5.162  0.3467 -0.2817  0.2094
    1DIPC   D2A 5034  27.785  26.274   4.819 -0.1188  0.1356  0.2823
    1DIPC   D3A 5035  28.113  25.923   4.626 -0.1392  0.4406 -0.1057
    1DIPC   C4A 5036  28.359  25.953   4.296 -0.0204  0.0573 -0.0202
    1DIPC   C1B 5037  28.260  26.740   4.989 -0.0827  0.1995  0.2280
    1DIPC   D2B 5038  27.839  26.787   4.758  0.1335  0.0105 -0.1502
    1DIPC   D3B 5039  27.490  26.672   4.897 -0.0912 -0.0863  0.0105
    1DIPC   C4B 5040  27.524  26.688   5.364  0.2388 -0.1795 -0.2073
    1DIPC   NC3 5041  13.643  22.606   5.028 -0.4331 -0.3932  0.0615
    1DIPC   PO4 5042  13.322  22.618   5.038  0.2644  0.0208 -0.1175
    1DIPC   GL1 5043  13.306  22.328   4.636  0.0267 -0.1813 -0.0503
    1DIPC   GL2 5044  13.442  22.029   4.709  0.3606  0.3457  0.1099
    1DIPC   C1A 5045  13.458  22.296   4.232 -0.0187  0.0675  0.0733
    1DIPC   D2A 5046  13.832  22.512   4.068  0.0066 -0.2059  0.0219
    1DIPC   D3A 5047  13.473  22.856   4.062  0.1530  0.3115 -0.1098
    1DIPC   C4A 5048  13.666  23.238   4.240  0.0250 -0.0757  0.2174
    1DIPC   C1B 5049  13.331  21.815   4.333  0.2448  0.0215 -0.1655
    1DIPC   D2B 5050  13.173  21.929   3.924 -0.2093  0.0846  0.0024
    1DIPC   D3B 5051  13.109  22.347   3.907 -0.1643  0.0147  0.2220
    1DIPC   C4B 5052  12.824  22.484   3.604 -0.1005 -0.2421 -0.1836
    1DIPC   NC3 5053  16.566  26.479   6.174  0.3345  0.0845  0.1985
    1DIPC   PO4 5054  16.354  26.804   6.471 -0.0758 -0.1919  0.1325
    1DIPC   GL1 5055  16.286  27.205   6.177 -0.0315 -0.1311  0.1680
    1DIPC   GL2 5056  16.095  27.541   6.215 -0.0176  0.0290 -0.0338
    1DIPC   C1A 5057  16.433  27.268   5.743  0.3690 -0.2464  0.0958
    1DIPC   D2A 5058  16.571  27.099   5.295  0.1030 -0.0893 -0.1146
    1DIPC   D3A 5059  16.173  27.429   5.293 -0.1248 -0.2709 -0.3416
    1DIPC   C4A 5060  15.771  27.586   4.922 -0.0201  0.0498  0.2009
    1DIPC   C1B 5061  15.910  27.567   5.807  0.0001 -0.0268  0.3656
    1DIPC   D2B 5062  15.560  27.298   5.583  0.2452  0.0510  0.2181
    1DIPC   D3B 5063  15.521  27.704   5.361 -0.0749  0.0666  0.1700
    1DIPC   C4B 5064  15.242  27.722   5.000  0.0574 -0.1978 -0.1059
    1DIPC   NC3 5065   4.236  21.995   6.198  0.2723 -0.2351  0.0896
    1DIPC   PO4 5066   4.347  22.277   5.941  0.1322  0.0944  0.0648
    1DIPC   GL1 5067   4.033  22.506   5.515  0.1362 -0.1845 -0.1592
    1DIPC   GL2 5068   4.279  22.651   5.387  0.2175  0.2995  0.2001
    1DIPC   C1A 5069   3.947  22.483   5.075  0.3222 -0.1630 -0.2324
    1DIPC   D2A 5070   3.827  22.206   4.603 -0.0014 -0.3519 -0.1695
    1DIPC   D3A 5071   3.874  22.430   4.261 -0.1721  0.0961 -0.1242
    1DIPC   C4A 5072   4.159  22.806   4.191 -0.3076 -0.0792 -0.1277
    1DIPC   C1B 5073   4.433  22.691   4.938  0.1233  0.1301 -0.1703
    1DIPC   D2B 5074   4.601  22.829   4.540 -0.1590 -0.0357  0.3272
    1DIPC   D3B 5075   4.758  22.543   4.294  0.0791 -0.1912  0.1259
    1DIPC   C4B 5076   5.278  22.260   4.393 -0.1000  0.0267  0.1555
    1DIPC   NC3 5077   5.755  16.647   6.368 -0.1685  0.0142 -0.4711
    1DIPC   PO4 5078   5.492  16.247   6.464 -0.1798 -0.2208  0.1143
    1DIPC   GL1 5079   5.406  16.163   6.025  0.0604 -0.0255 -0.1034
    1DIPC   GL2 5080   5.726  15.979   6.074 -0.3734  0.0066 -0.0056
    1DIPC   C1A 5081   5.121  16.168   5.653  0.0453  0.0541 -0.1709
    1DIPC   D2A 5082   4.691  16.091   5.461  0.0940 -0.2360 -0.0014
    1DIPC   D3A 5083   4.633  16.403   5.725  0.4867 -0.0804  0.0443
    1DIPC   C4A 5084   4.994  16.593   5.849 -0.4257  0.0468  0.0160
    1DIPC   C1B 5085   5.615  16.070   5.594  0.0223  0.0784 -0.0595
    1DIPC   D2B 5086   5.254  15.812   5.358 -0.0755 -0.2441  0.1025
    1DIPC   D3B 5087   5.122  16.175   5.115  0.3233  0.0752  0.1272
    1DIPC   C4B 5088   4.912  16.497   5.317 -0.1269  0.0674 -0.0190
    1DIPC   NC3 5089  11.361  11.979   6.371 -0.1690 -0.0357 -0.3366
    1DIPC   PO4 5090  11.112  11.696   6.637 -0.2855 -0.0645 -0.0466
    1DIPC   GL1 5091  10.991  11.680   6.105  0.1174 -0.3597 -0.2196
    1DIPC   GL2 5092  10.959  11.822   5.766  0.3348 -0.0410 -0.2513
    1DIPC   C1A 5093  10.901  11.328   5.855  0.0905  0.0642 -0.0036
    1DIPC   D2A 5094  10.797  11.243   5.481 -0.2686 -0.2050 -0.0600
    1DIPC   D3A 5095  10.543  11.575   5.297 -0.1049 -0.0147  0.2545
    1DIPC   C4A 5096  10.385  11.436   4.923  0.0309 -0.1550 -0.1671
    1DIPC   C1B 5097  11.024  11.660   5.390  0.1452  0.0036 -0.0575
    1DIPC   D2B 5098  11.011  11.384   5.005  0.2414 -0.1070  0.2086
    1DIPC   D3B 5099  10.706  10.989   4.941 -0.0504  0.0999  0.0923
    1DIPC   C4B 5100  10.265  11.006   5.091 -0.1203  0.1805  0.0209
    1DIPC   NC3 5101  18.684  17.324   5.896 -0.0375  0.2857 -0.1751
    1DIPC   PO4 5102  18.705  16.953   6.181  0.1442  0.1671  0.1267
    1DIPC   GL1 5103  18.558  16.659   5.882 -0.0059  0.0447  0.1013
    1DIPC   GL2 5104  18.454  16.906   5.662 -0.0787  0.1980  0.1625
    1DIPC   C1A 5105  18.323  16.324   5.729 -0.0381 -0.6872 -0.0806
    1DIPC   D2A 5106  18.365  16.138   5.355 -0.1588 -0.1286 -0.0654
    1DIPC   D3A 5107  18.366  15.912   4.940 -0.1256 -0.1447  0.2566
    1DIPC   C4A 5108  18.583  15.890   4.583 -0.2675  0.0953 -0.1132
    1DIPC   C1B 5109  18.364  16.641   5.280 -0.1559  0.0637  0.1639
    1DIPC   D2B 5110  18.234  16.486   4.890  0.3443  0.1937  0.3043
    1DIPC   D3B 5111  17.736  16.515   4.781 -0.0557  0.3179 -0.0421
    1DIPC   C4B 5112  17.469  16.708   5.214  0.2223  0.1366  0.0192
    1DIPC   NC3 5113   7.503  11.663   6.443 -0.0301  0.0358 -0.1023
    1DIPC   PO4 5114   7.036  11.627   6.155  0.3766  0.4306  0.0425
    1DIPC   GL1 5115   6.995  11.631   5.683 -0.0712  0.1177 -0.0987
    1DIPC   GL2 5116   6.719  11.733   5.471 -0.0135  0.0637  0.1431
    1DIPC   C1A 5117   7.162  11.690   5.214 -0.0656  0.3672 -0.0386
    1DIPC   D2A 5118   7.267  11.502   4.911  0.2278  0.1451  0.0241
    1DIPC   D3A 5119   7.038  11.505   4.688  0.0182  0.0316  0.2506
    1DIPC   C4A 5120   6.668  11.793   4.618 -0.0275  0.2213 -0.3133
    1DIPC   C1B 5121   6.403  11.531   5.511 -0.2010 -0.1542 -0.0127
    1DIPC   D2B 5122   5.941  11.405   5.388  0.3921 -0.1916  0.2025
    1DIPC   D3B 5123   6.202  11.208   5.156  0.1756 -0.0171  0.1473
    1DIPC   C4B 5124   6.063  10.864   4.890 -0.2955  0.0470 -0.1538
    1DIPC   NC3 5125  28.335  15.471   6.633 -0.1078  0.0057 -0.1122
    1DIPC   PO4 5126  27.897  15.735   6.634  0.0296 -0.1133  0.1103
    1DIPC   GL1 5127  27.886  15.514   6.261  0.1967 -0.3806  0.2286
    1DIPC   GL2 5128  27.644  15.371   6.079  0.0436  0.2406 -0.0764
    1DIPC   C1A 5129  28.258  15.465   5.949 -0.0559  0.1140  0.1117
    1DIPC   D2A 5130  28.494  15.323   5.520  0.2654  0.0070  0.0104
    1DIPC   D3A 5131  28.590  15.220   5.094 -0.1422 -0.2689  0.0016
    1DIPC   C4A 5132  28.317  14.946   4.919 -0.1198  0.0551 -0.4062
    1DIPC   C1B 5133  27.762  15.379   5.674  0.1236  0.3662  0.1846
    1DIPC   D2B 5134  27.923  15.221   5.340 -0.0616  0.0026  0.1381
    1DIPC   D3B 5135  28.057  15.367   5.010 -0.3484  0.3100  0.0285
    1DIPC   C4B 5136  28.397  15.609   4.922 -0.0902  0.0040  0.2355
    1DIPC   NC3 5137  25.569  23.916   6.336 -0.0070 -0.2831 -0.1049
    1DIPC   PO4 5138  25.243  23.819   6.538  0.4020  0.3658 -0.2101
    1DIPC   GL1 5139  25.166  23.663   6.176  0.1460 -0.0468 -0.3422
    1DIPC   GL2 5140  25.108  23.365   6.152 -0.1552  0.0099 -0.0175
    1DIPC   C1A 5141  25.180  23.691   5.733  0.2781  0.1455 -0.1850
    1DIPC   D2A 5142  25.010  23.469   5.384  0.1473 -0.0128  0.0833
    1DIPC   D3A 5143  25.506  23.404   5.492  0.2074  0.0658 -0.1134
    1DIPC   C4A 5144  25.822  23.071   5.600 -0.1025 -0.3548 -0.1858
    1DIPC   C1B 5145  24.874  23.161   5.839 -0.1199 -0.0122 -0.1479
    1DIPC   D2B 5146  24.653  23.135   5.483 -0.2444 -0.0184 -0.0464
    1DIPC   D3B 5147  24.746  22.941   5.193 -0.1470  0.1357 -0.2889
    1DIPC   C4B 5148  24.341  22.954   4.980  0.4093 -0.0795 -0.0580
    1DIPC   NC3 5149  12.932   9.829   7.080  0.0871  0.0073 -0.2287
    1DIPC   PO4 5150  13.391   9.978   7.120  0.0007 -0.3064  0.0148
    1DIPC   GL1 5151  13.385   9.637   6.827  0.2157 -0.1360  0.2725
    1DIPC   GL2 5152  13.692   9.462   6.846 -0.1042 -0.0048 -0.2489
    1DIPC   C1A 5153  13.084   9.426   6.508  0.0464  0.2982 -0.1732
    1DIPC   D2A 5154  12.669   9.308   6.329  0.0296 -0.0257  0.0595
    1DIPC   D3A 5155  12.692   9.307   5.948  0.0254  0.0486  0.0977
    1DIPC   C4A 5156  12.507   8.973   5.698 -0.3289 -0.0787  0.1098
    1DIPC   C1B 5157  13.742   9.317   6.472  0.0258 -0.0194  0.0206
    1DIPC   D2B 5158  13.794   9.356   6.042  0.1310 -0.1120  0.1139
    1DIPC   D3B 5159  14.154   9.168   6.323 -0.0555  0.0473 -0.0826
    1DIPC   C4B 5160  14.339   9.397   6.599 -0.1265  0.2603  0.2140
    1DIPC   NC3 5161  29.695  29.153   6.153 -0.0768 -0.0161  0.1620
    1DIPC   PO4 5162  29.647  28.721   5.936 -0.0357  0.0037  0.0830
    1DIPC   GL1 5163  29.578  28.934   5.582 -0.0897  0.0354  0.2617
    1DIPC   GL2 5164  29.752  29.188   5.569 -0.1844  0.2031 -0.2712
    1DIPC   C1A 5165  29.316  28.778   5.184  0.1247  0.0726  0.3584
    1DIPC   D2A 5166  29.465  28.794   4.875  0.2162 -0.2369 -0.3344
    1DIPC   D3A 5167  29.308  29.224   4.630 -0.0363  0.1545  0.0353
    1DIPC   C4A 5168  29.180  29.640   4.846 -0.0195  0.1015 -0.0062
    1DIPC   C1B 5169  29.770  29.063   5.117  0.2881 -0.0335 -0.1132
    1DIPC   D2B 5170   0.061  29.083   4.686 -0.1484  0.0630 -0.0446
    1DIPC   D3B 5171   0.241  28.718   4.501  0.0132 -0.0747 -0.1154
    1DIPC   C4B 5172   0.604  28.531   4.555 -0.0171  0.2461 -0.3039
    1DIPC   NC3 5173   6.814  11.223   6.992 -0.0558 -0.1513 -0.1169
    1DIPC   PO4 5174   7.227  11.363   6.732 -0.0056  0.0437 -0.0071
    1DIPC   GL1 5175   7.361  11.216   6.296  0.1236 -0.2207  0.0438
    1DIPC   GL2 5176   7.056  11.105   6.210  0.0595 -0.1626 -0.0010
    1DIPC   C1A 5177   7.564  10.909   5.951 -0.0173 -0.0832  0.1262
    1DIPC   D2A 5178   7.755  10.517   5.953 -0.0518  0.0451  0.3517
    1DIPC   D3A 5179   7.466  10.520   5.648  0.0912  0.0623 -0.1074
    1DIPC   C4A 5180   7.295  10.083   5.578 -0.3932  0.0044 -0.3418
    1DIPC   C1B 5181   6.998  11.040   5.770  0.1615  0.0084 -0.1154
    1DIPC   D2B 5182   7.289  10.938   5.400  0.1275  0.0272 -0.1787
    1DIPC   D3B 5183   7.613  10.871   5.074  0.1325  0.1748  0.2357
    1DIPC   C4B 5184   7.831  11.219   4.846  0.2599  0.2154 -0.2159
    1DIPC   NC3 5185   8.084  14.805   5.845  0.0700  0.0636  0.2411
    1DIPC   PO4 5186   8.402  15.053   6.088  0.2660  0.0582  0.0281
    1DIPC   GL1 5187   8.536  15.293   5.653 -0.3183  0.3214 -0.0352
    1DIPC   GL2 5188   8.409  15.005   5.507 -0.1943 -0.0640 -0.1286
    1DIPC   C1A 5189   8.847  15.331   5.379 -0.0324 -0.1010  0.1547
    1DIPC   D2A 5190   8.942  15.292   4.962  0.0189 -0.2499  0.0088
    1DIPC   D3A 5191   9.081  15.023   4.611  0.0630  0.0511 -0.0908
    1DIPC   C4A 5192   8.875  15.009   4.264 -0.0494  0.1330 -0.0412
    1DIPC   C1B 5193   8.530  14.979   5.020 -0.1332  0.1347  0.0204
    1DIPC   D2B 5194   8.576  15.223   4.579  0.0313  0.1219  0.0595
    1DIPC   D3B 5195   8.203  15.521   4.684 -0.1904  0.0269  0.1682
    1DIPC   C4B 5196   8.256  15.387   5.221  0.2297  0.1112 -0.3420
    1DIPC   NC3 5197   4.912  24.560   5.759 -0.1679 -0.0365 -0.1946
    1DIPC   PO4 5198   5.352  24.585   5.927 -0.1795  0.1003 -0.1448
    1DIPC   GL1 5199   5.503  24.869   5.621  0.0477 -0.0428  0.1911
    1DIPC   GL2 5200   5.824  24.677   5.546 -0.1909  0.0891  0.0314
    1DIPC   C1A 5201   5.578  24.991   5.119 -0.0384  0.0461  0.0454
    1DIPC   D2A 5202   5.986  24.942   4.921 -0.1171  0.0719  0.3105
    1DIPC   D3A 5203   5.914  25.296   4.705  0.0918  0.0217 -0.0439
    1DIPC   C4A 5204   5.844  25.234   4.294  0.1063 -0.1342  0.3043
    1DIPC   C1B 5205   6.222  24.671   5.293 -0.4199 -0.2335 -0.0615
    1DIPC   D2B 5206   6.444  24.397   4.850  0.2739  0.1222  0.2470
    1DIPC   D3B 5207   6.814  24.420   4.719 -0.1722  0.2670 -0.1787
    1DIPC   C4B 5208   7.106  24.694   5.008  0.2665  0.1597  0.2315
    1DIPC   NC3 5209   5.807  15.201   6.070  0.2248  0.0454 -0.0137
    1DIPC   PO4 5210   5.646  15.497   6.149 -0.3299 -0.0964  0.1660
    1DIPC   GL1 5211   5.619  15.544   5.650 -0.0317 -0.0441 -0.1458
    1DIPC   GL2 5212   5.823  15.326   5.584  0.3401 -0.0514 -0.1201
    1DIPC   C1A 5213   5.822  15.677   5.264  0.1178  0.2834  0.1164
    1DIPC   D2A 5214   6.163  15.648   4.901  0.2594  0.2817  0.0776
    1DIPC   D3A 5215   5.886  15.314   4.744 -0.0464 -0.2210 -0.1282
    1DIPC   C4A 5216   5.500  15.438   4.477  0.0220 -0.0279 -0.3454
    1DIPC   C1B 5217   6.046  15.266   5.300  0.2631  0.2071 -0.1203
    1DIPC   D2B 5218   6.181  14.984   5.006 -0.2661 -0.1857 -0.1007
    1DIPC   D3B 5219   6.075  14.874   4.575  0.1085 -0.1332  0.1553
    1DIPC   C4B 5220   6.410  14.996   4.238 -0.0853 -0.3211  0.1918
    1DIPC   NC3 5221  21.575  27.231   6.535  0.2613  0.2851  0.2421
    1DIPC   PO4 5222  21.157  27.263   6.516 -0.0475 -0.0026 -0.1139
    1DIPC   GL1 5223  20.999  27.462   6.167 -0.0354  0.1542 -0.0014
    1DIPC   GL2 5224  21.210  27.630   6.085  0.4506 -0.2796 -0.0315
    1DIPC   C1A 5225  20.770  27.702   5.913  0.0635  0.0710  0.0648
    1DIPC   D2A 5226  20.653  27.908   5.529  0.0701  0.1707  0.0183
    1DIPC   D3A 5227  20.555  28.249   5.262 -0.0713  0.1357  0.1855
    1DIPC   C4A 5228  20.125  28.409   5.150 -0.2342 -0.2656 -0.1439
    1DIPC   C1B 5229  21.441  27.696   5.647 -0.0922 -0.1117 -0.1044
    1DIPC   D2B 5230  21.794  27.832   5.426  0.2756 -0.2475 -0.2511
    1DIPC   D3B 5231  22.099  27.414   5.219  0.2219 -0.0423  0.0192
    1DIPC   C4B 5232  22.522  27.445   4.917  0.3637 -0.0027 -0.0398
    1DIPC   NC3 5233   8.144  23.442   6.315  0.0229 -0.0798  0.1145
    1DIPC   PO4 5234   7.882  23.403   5.923  0.1462 -0.1619  0.0362
    1DIPC   GL1 5235   7.753  23.557   5.571 -0.0888 -0.1170  0.1098
    1DIPC   GL2 5236   7.554  23.670   5.413  0.2424 -0.0771 -0.0589
    1DIPC   C1A 5237   7.528  23.172   5.314 -0.1622 -0.0960  0.0424
    1DIPC   D2A 5238   7.504  22.963   4.895 -0.3429  0.0454 -0.1419
    1DIPC   D3A 5239   7.633  22.807   4.568 -0.3202  0.0138  0.1175
    1DIPC   C4A 5240   7.668  23.031   4.215  0.2157  0.1907  0.3398
    1DIPC   C1B 5241   7.359  23.579   5.069  0.1647  0.0570  0.2921
    1DIPC   D2B 5242   6.928  23.722   4.960  0.3127 -0.0305  0.1668
    1DIPC   D3B 5243   6.947  24.115   5.141 -0.3147  0.0536 -0.0790
    1DIPC   C4B 5244   6.642  24.385   5.385 -0.4294  0.6063 -0.4540
    1DIPC   NC3 5245  14.487   5.250   8.672  0.1553  0.1062  0.0030
    1DIPC   PO4 5246  14.379   5.350   8.270 -0.0555 -0.1066 -0.1126
    1DIPC   GL1 5247  14.412   5.257   7.744  0.1083  0.0869 -0.1112
    1DIPC   GL2 5248  13.995   5.242   7.567 -0.0065 -0.1260  0.0195
    1DIPC   C1A 5249  14.632   4.885   7.486 -0.0251  0.0913  0.4728
    1DIPC   D2A 5250  14.624   4.759   7.116 -0.2253  0.1046  0.1167
    1DIPC   D3A 5251  14.723   5.093   6.685  0.0916 -0.2924  0.1778
    1DIPC   C4A 5252  15.038   4.990   6.485  0.2130 -0.0785 -0.1613
    1DIPC   C1B 5253  14.209   5.059   7.220  0.0298 -0.4061 -0.0923
    1DIPC   D2B 5254  14.223   5.242   6.789 -0.1759 -0.2677 -0.4852
    1DIPC   D3B 5255  13.879   4.945   6.488 -0.2490 -0.2363  0.7406
    1DIPC   C4B 5256  13.579   4.590   6.528  0.1436  0.0890  0.0478
    1DIPC   NC3 5257   6.466   3.762   7.230  0.2294  0.1403  0.1608
    1DIPC   PO4 5258   6.757   3.974   6.956  0.1387 -0.3916  0.0269
    1DIPC   GL1 5259   6.860   3.933   6.568  0.1546 -0.3664  0.3253
    1DIPC   GL2 5260   6.833   4.264   6.394  0.4717  0.3026  0.0499
    1DIPC   C1A 5261   6.840   3.797   6.088 -0.0590  0.1232 -0.2139
    1DIPC   D2A 5262   7.253   3.641   5.994 -0.3308  0.3398  0.2279
    1DIPC   D3A 5263   7.240   3.423   5.654  0.1335 -0.0050  0.0782
    1DIPC   C4A 5264   7.270   2.863   5.600 -0.0882 -0.0276 -0.0564
    1DIPC   C1B 5265   6.705   4.336   5.969 -0.1546 -0.0578  0.0317
    1DIPC   D2B 5266   6.606   4.688   5.662  0.1371 -0.3748  0.3099
    1DIPC   D3B 5267   6.516   4.314   5.447  0.1415 -0.3375 -0.2481
    1DIPC   C4B 5268   6.692   4.358   4.926 -0.1616  0.0305  0.2216
    1DIPC   NC3 5269  23.826  26.783   6.724  0.0451 -0.2428  0.2335
    1DIPC   PO4 5270  23.985  27.172   6.525 -0.0534 -0.0780 -0.1213
    1DIPC   GL1 5271  23.780  26.993   6.243 -0.0878 -0.1811 -0.0528
    1DIPC   GL2 5272  23.516  26.879   6.224 -0.0468 -0.2220 -0.2395
    1DIPC   C1A 5273  23.850  27.026   5.802 -0.1317  0.4233  0.0831
    1DIPC   D2A 5274  23.982  27.149   5.335 -0.1724 -0.2725 -0.1903
    1DIPC   D3A 5275  23.913  27.015   4.963 -0.2195 -0.0805  0.0562
    1DIPC   C4A 5276  23.550  27.070   4.683  0.3968  0.1752  0.1824
    1DIPC   C1B 5277  23.405  26.857   5.790  0.5364  0.2959 -0.0700
    1DIPC   D2B 5278  23.454  27.016   5.381  0.1814 -0.1435 -0.0693
    1DIPC   D3B 5279  23.382  26.721   5.044  0.0620  0.2528 -0.6136
    1DIPC   C4B 5280  22.980  26.615   4.961 -0.2172  0.0338  0.0454
    1DIPC   NC3 5281  14.488  26.868   6.353 -0.2966 -0.0697 -0.4233
    1DIPC   PO4 5282  14.554  26.761   5.910 -0.0993  0.0607 -0.0658
    1DIPC   GL1 5283  14.540  26.776   5.486  0.1499  0.0427 -0.0484
    1DIPC   GL2 5284  14.666  26.443   5.445 -0.1860 -0.1108 -0.2676
    1DIPC   C1A 5285  14.514  26.974   5.060 -0.1497 -0.0302  0.1104
    1DIPC   D2A 5286  14.406  27.144   4.657 -0.0264 -0.1823  0.3457
    1DIPC   D3A 5287  14.737  26.870   4.559 -0.0343 -0.1576 -0.0016
    1DIPC   C4A 5288  15.121  26.795   4.278 -0.0430  0.0406 -0.0280
    1DIPC   C1B 5289  14.940  26.648   5.067  0.2401  0.0059 -0.1943
    1DIPC   D2B 5290  15.330  26.740   4.863 -0.1178 -0.1536 -0.3893
    1DIPC   D3B 5291  15.516  26.578   4.489 -0.1595 -0.2416 -0.0347
    1DIPC   C4B 5292  15.595  26.937   4.186  0.2703 -0.1396 -0.0594
    1DIPC   NC3 5293   1.124  22.100   6.598 -0.0673 -0.1984 -0.0988
    1DIPC   PO4 5294   1.424  21.902   6.454  0.4764 -0.0717 -0.1375
    1DIPC   GL1 5295   1.382  21.882   6.060 -0.0240  0.2918 -0.1328
    1DIPC   GL2 5296   1.219  22.189   5.820  0.2400  0.2566 -0.0332
    1DIPC   C1A 5297   1.499  21.591   5.760  0.0096 -0.0829 -0.0286
    1DIPC   D2A 5298   1.484  21.228   5.711  0.2051  0.0015  0.0390
    1DIPC   D3A 5299   1.047  21.327   5.562  0.0815 -0.1362  0.0144
    1DIPC   C4A 5300   1.034  21.483   5.182  0.0776  0.0327  0.0295
    1DIPC   C1B 5301   0.904  22.345   5.810  0.2019  0.0309  0.1328
    1DIPC   D2B 5302   0.479  22.403   5.708  0.1320 -0.1222  0.1282
    1DIPC   D3B 5303   0.762  22.112   5.427  0.1716 -0.2247  0.1332
    1DIPC   C4B 5304   0.997  22.301   5.127  0.0404  0.0444 -0.0361
    1DIPC   NC3 5305  25.215   0.008   7.175 -0.4530 -0.0074 -0.0366
    1DIPC   PO4 5306  25.653  29.802   6.934  0.3348  0.2387 -0.4126
    1DIPC   GL1 5307  25.512  29.818   6.540  0.3036 -0.0823  0.3282
    1DIPC   GL2 5308  25.198   0.182   6.738 -0.0038  0.4796 -0.0224
    1DIPC   C1A 5309  25.420  29.727   6.153  0.1883  0.0233  0.0026
    1DIPC   D2A 5310  25.710  29.837   5.788  0.3576  0.0810  0.0581
    1DIPC   D3A 5311  26.006  29.630   5.549  0.4432  0.0412  0.1445
    1DIPC   C4A 5312  26.344  29.422   5.798  0.1137  0.0159 -0.0472
    1DIPC   C1B 5313  25.164   0.312   6.282  0.3138  0.2148 -0.2812
    1DIPC   D2B 5314  25.223   0.305   5.885 -0.1134 -0.0252 -0.0192
    1DIPC   D3B 5315  24.822   0.240   5.759 -0.3156 -0.2685  0.0499
    1DIPC   C4B 5316  24.580  29.774   5.628  0.1233 -0.5151 -0.0830
    1DIPC   NC3 5317  28.617   1.556   6.142  0.1616 -0.0430  0.1950
    1DIPC   PO4 5318  28.891   1.920   6.372 -0.1337  0.1448 -0.1953
    1DIPC   GL1 5319  28.808   2.062   5.942 -0.2159 -0.3275 -0.1680
    1DIPC   GL2 5320  29.011   1.852   5.778  0.1169  0.0793  0.0395
    1DIPC   C1A 5321  28.574   1.946   5.580 -0.1850 -0.1193 -0.0826
    1DIPC   D2A 5322  28.115   1.939   5.661 -0.1361 -0.2108  0.1364
    1DIPC   D3A 5323  28.242   1.546   5.842  0.1158  0.1707  0.1757
    1DIPC   C4A 5324  27.825   1.226   5.875  0.1570  0.0251 -0.0417
    1DIPC   C1B 5325  28.990   1.957   5.313  0.0084  0.3583  0.0917
    1DIPC   D2B 5326  28.622   1.850   4.953  0.1194  0.0163  0.1316
    1DIPC   D3B 5327  29.101   1.952   4.661  0.0502  0.0521  0.1188
    1DIPC   C4B 5328  29.068   1.657   4.159  0.1788 -0.0548 -0.0405
    1DIPC   NC3 5329   4.649  15.541   6.192 -0.2543  0.3223 -0.1380
    1DIPC   PO4 5330   4.237  15.440   6.179 -0.3764  0.2611  0.1862
    1DIPC   GL1 5331   4.328  15.300   5.702 -0.0888 -0.4354 -0.5070
    1DIPC   GL2 5332   4.584  15.228   5.793 -0.3582 -0.3696 -0.0041
    1DIPC   C1A 5333   4.263  15.635   5.321  0.0354 -0.3070 -0.1153
    1DIPC   D2A 5334   4.255  15.810   4.893  0.1771  0.0381 -0.0268
    1DIPC   D3A 5335   3.927  16.098   5.079  0.2506 -0.1888  0.0414
    1DIPC   C4A 5336   3.597  16.082   4.879 -0.2508 -0.2785 -0.0426
    1DIPC   C1B 5337   4.750  15.517   5.486  0.0463  0.2235  0.0223
    1DIPC   D2B 5338   4.739  15.785   5.095 -0.0166 -0.2134 -0.0649
    1DIPC   D3B 5339   4.708  15.564   4.683  0.4150  0.3417  0.2355
    1DIPC   C4B 5340   4.997  15.742   4.396  0.0151  0.1462 -0.2513
    1DIPC   NC3 5341  23.837  19.176   6.323  0.2585  0.0600 -0.0746
    1DIPC   PO4 5342  23.741  19.604   6.393  0.0926 -0.0151 -0.2235
    1DIPC   GL1 5343  23.859  19.570   5.980  0.1999 -0.1497  0.2520
    1DIPC   GL2 5344  23.908  19.226   5.846  0.1197  0.1939  0.0714
    1DIPC   C1A 5345  23.609  19.552   5.575  0.2095  0.1922  0.0566
    1DIPC   D2A 5346  23.340  19.725   5.208 -0.1647 -0.2692 -0.1438
    1DIPC   D3A 5347  23.416  19.771   4.772  0.0670 -0.1062 -0.2335
    1DIPC   C4A 5348  23.427  20.256   4.634  0.3739 -0.0225 -0.1095
    1DIPC   C1B 5349  24.021  19.366   5.458 -0.0403  0.2297 -0.0998
    1DIPC   D2B 5350  24.188  19.210   5.039 -0.0467 -0.0354 -0.0459
    1DIPC   D3B 5351  24.704  19.153   5.114  0.1848  0.0436 -0.2379
    1DIPC   C4B 5352  25.004  18.855   5.313 -0.0596  0.1540  0.1003
    1DIPC   NC3 5353  25.503  22.676   6.588  0.1067 -0.4355 -0.0539
    1DIPC   PO4 5354  25.927  22.789   6.640  0.0626  0.3492 -0.3921
    1DIPC   GL1 5355  25.938  22.648   6.238 -0.2508 -0.2471 -0.1251
    1DIPC   GL2 5356  26.289  22.603   6.130 -0.0331  0.2555 -0.2175
    1DIPC   C1A 5357  25.907  22.343   5.899  0.1319  0.0137  0.1331
    1DIPC   D2A 5358  25.894  22.177   5.402 -0.0766  0.2239 -0.1028
    1DIPC   D3A 5359  26.169  21.946   5.355  0.1188 -0.0005  0.2449
    1DIPC   C4A 5360  26.434  21.705   5.068  0.3766 -0.0917 -0.0220
    1DIPC   C1B 5361  26.226  22.696   5.712 -0.2047 -0.0416 -0.3266
    1DIPC   D2B 5362  26.056  22.633   5.284 -0.0651  0.0704  0.3294
    1DIPC   D3B 5363  26.322  22.734   4.977  0.1599  0.1264  0.2952
    1DIPC   C4B 5364  26.693  22.539   4.814  0.0439 -0.1337  0.0657
    1DIPC   NC3 5365  29.527   2.438   7.224  0.3504 -0.1411  0.0421
    1DIPC   PO4 5366  29.648   2.394   6.778 -0.0232 -0.2722  0.0917
    1DIPC   GL1 5367  29.577   2.515   6.361  0.3098 -0.0779  0.0592
    1DIPC   GL2 5368  29.389   2.709   6.153 -0.1504  0.3253 -0.2720
    1DIPC   C1A 5369   0.064   2.402   6.074  0.1435  0.0858 -0.0213
    1DIPC   D2A 5370   0.339   2.631   5.812 -0.1101 -0.1278  0.0245
    1DIPC   D3A 5371   0.503   2.308   5.626 -0.1873 -0.2038 -0.3525
    1DIPC   C4A 5372   0.264   1.941   5.367 -0.0151  0.0517  0.0423
    1DIPC   C1B 5373  29.498   3.037   5.937  0.0475  0.3644  0.2484
    1DIPC   D2B 5374  29.398   3.291   5.597 -0.0993 -0.2370 -0.0938
    1DIPC   D3B 5375  29.235   2.990   5.393 -0.0797 -0.1198 -0.0009
    1DIPC   C4B 5376  29.571   2.768   5.168 -0.2936 -0.0572  0.0752
    1DIPC   NC3 5377  28.771  25.972   6.355 -0.0157  0.0480 -0.4453
    1DIPC   PO4 5378  29.111  25.697   6.407  0.2982  0.4680 -0.1620
    1DIPC   GL1 5379  29.220  25.634   5.929  0.0836  0.1377  0.0285
    1DIPC   GL2 5380  29.275  25.937   5.828 -0.0272  0.1660 -0.3089
    1DIPC   C1A 5381  28.970  25.588   5.488  0.0200 -0.2593 -0.1321
    1DIPC   D2A 5382  29.075  25.530   4.991  0.0325 -0.4368  0.0353
    1DIPC   D3A 5383  28.632  25.773   4.740 -0.2357  0.2177  0.3493
    1DIPC   C4A 5384  28.255  25.622   4.974 -0.1355 -0.2564  0.1222
    1DIPC   C1B 5385  29.418  25.984   5.339 -0.1546 -0.4281 -0.2035
    1DIPC   D2B 5386  29.757  26.186   5.192  0.2025 -0.2675 -0.0766
    1DIPC   D3B 5387   0.153  25.974   5.203 -0.1928 -0.4439 -0.3142
    1DIPC   C4B 5388   0.279  25.701   4.911 -0.2399  0.1695 -0.1690
    1DIPC   NC3 5389   1.572   6.872   6.978  0.2448  0.2592 -0.0647
    1DIPC   PO4 5390   1.631   6.514   6.672  0.4037  0.1099 -0.1239
    1DIPC   GL1 5391   1.360   6.372   6.362  0.0618 -0.1852 -0.2195
    1DIPC   GL2 5392   1.621   6.261   6.112  0.3454 -0.0391 -0.1327
    1DIPC   C1A 5393   1.158   6.508   5.983  0.0081  0.1197  0.2380
    1DIPC   D2A 5394   1.236   6.403   5.534  0.1349 -0.1524 -0.1604
    1DIPC   D3A 5395   1.234   6.026   5.770  0.1971 -0.2306  0.3327
    1DIPC   C4A 5396   1.017   5.623   5.607  0.3055  0.2787  0.2585
    1DIPC   C1B 5397   1.733   6.528   5.854 -0.0281 -0.1879  0.3785
    1DIPC   D2B 5398   1.919   6.428   5.443 -0.1001  0.3025  0.0743
    1DIPC   D3B 5399   1.698   6.345   5.183 -0.3254  0.1209  0.2917
    1DIPC   C4B 5400   1.223   6.195   5.081 -0.2936 -0.2959  0.0072
    1DIPC   NC3 5401  21.053  20.470   6.131  0.3082  0.3483 -0.1160
    1DIPC   PO4 5402  20.892  20.748   5.859 -0.1290  0.0013 -0.0151
    1DIPC   GL1 5403  20.984  20.815   5.425 -0.0131  0.1030  0.1078
    1DIPC   GL2 5404  20.959  20.551   5.297  0.0556  0.0137  0.1164
    1DIPC   C1A 5405  21.133  21.275   5.255  0.1899  0.0078 -0.1178
    1DIPC   D2A 5406  21.130  21.308   4.764 -0.2261 -0.0153 -0.2483
    1DIPC   D3A 5407  21.480  21.413   4.887  0.1588 -0.2969  0.0708
    1DIPC   C4A 5408  21.444  21.638   5.351 -0.2181  0.1158 -0.0075
    1DIPC   C1B 5409  21.103  20.321   4.963  0.0591 -0.1692 -0.2458
    1DIPC   D2B 5410  21.627  20.289   4.793 -0.1717  0.0537 -0.1062
    1DIPC   D3B 5411  21.741  20.584   4.928 -0.1102  0.0300 -0.0654
    1DIPC   C4B 5412  21.828  21.081   4.921 -0.1797 -0.2764  0.1718
    1DIPC   NC3 5413  20.448  27.866   6.487 -0.1582  0.0541 -0.1906
    1DIPC   PO4 5414  20.713  28.196   6.671  0.1028  0.1790  0.2691
    1DIPC   GL1 5415  20.801  28.249   6.216  0.0347  0.4901  0.0742
    1DIPC   GL2 5416  21.107  28.136   6.207 -0.0650  0.0506 -0.0356
    1DIPC   C1A 5417  20.853  28.351   5.755 -0.1134 -0.0004  0.0313
    1DIPC   D2A 5418  21.167  28.603   5.528  0.2613 -0.0437 -0.3969
    1DIPC   D3A 5419  21.154  28.839   5.825 -0.2066 -0.0001  0.0368
    1DIPC   C4A 5420  21.327  29.258   5.754  0.0354 -0.0674 -0.0106
    1DIPC   C1B 5421  21.334  28.184   5.788  0.3119 -0.0804  0.0014
    1DIPC   D2B 5422  21.452  28.270   5.332 -0.1336  0.0291  0.0343
    1DIPC   D3B 5423  21.515  28.808   5.162  0.0481  0.0051 -0.1460
    1DIPC   C4B 5424  21.285  29.081   4.991  0.1073 -0.1339 -0.0700
    1DIPC   NC3 5425   8.120  13.390   6.450 -0.0036 -0.0759 -0.0267
    1DIPC   PO4 5426   8.487  13.329   6.260 -0.1173  0.3234  0.1546
    1DIPC   GL1 5427   8.268  13.493   5.914 -0.0925  0.0674 -0.1675
    1DIPC   GL2 5428   8.025  13.663   6.009 -0.0609 -0.0361  0.0365
    1DIPC   C1A 5429   8.413  13.474   5.517 -0.0363 -0.2147 -0.3388
    1DIPC   D2A 5430   8.525  13.689   5.096 -0.2710 -0.0288  0.1466
    1DIPC   D3A 5431   8.652  14.102   4.798 -0.2685  0.1648 -0.1473
    1DIPC   C4A 5432   8.794  13.873   4.612  0.0699  0.1700 -0.1133
    1DIPC   C1B 5433   8.030  13.755   5.606 -0.3598 -0.0383  0.1461
    1DIPC   D2B 5434   7.809  13.606   5.241  0.2432 -0.2706 -0.0909
    1DIPC   D3B 5435   7.868  13.596   4.859  0.3139  0.0027 -0.1414
    1DIPC   C4B 5436   7.684  14.035   4.654  0.3488 -0.1789  0.4052
    1DIPC   NC3 5437  29.345  21.334   6.241 -0.0683  0.2752  0.3396
    1DIPC   PO4 5438  29.359  21.757   6.333  0.0860 -0.1955 -0.0692
    1DIPC   GL1 5439  29.264  21.894   5.924  0.0884  0.0885  0.0588
    1DIPC   GL2 5440  29.071  21.792   5.709  0.1666 -0.0736  0.0484
    1DIPC   C1A 5441  29.483  21.951   5.533 -0.0350 -0.1236 -0.0933
    1DIPC   D2A 5442  29.625  22.357   5.307  0.1272 -0.4874  0.4800
    1DIPC   D3A 5443  29.292  22.518   4.902  0.1296  0.5647 -0.3899
    1DIPC   C4A 5444  29.222  22.215   4.483 -0.0656  0.1375  0.1301
    1DIPC   C1B 5445  28.639  21.905   5.796 -0.4620  0.3433  0.2248
    1DIPC   D2B 5446  28.256  21.983   5.587 -0.0211 -0.0140  0.0832
    1DIPC   D3B 5447  28.375  22.418   5.455  0.2367 -0.1986  0.0380
    1DIPC   C4B 5448  28.113  22.513   5.103  0.0915 -0.0810 -0.2009
    1DIPC   NC3 5449  26.098  23.227   7.281  0.4008  0.0270  0.1507
    1DIPC   PO4 5450  26.097  23.274   6.862  0.1279  0.1465  0.1106
    1DIPC   GL1 5451  26.214  23.129   6.403  0.1031  0.0961  0.2815
    1DIPC   GL2 5452  26.497  23.039   6.425  0.0681 -0.2431 -0.2321
    1DIPC   C1A 5453  26.121  23.191   5.994  0.2094 -0.1418 -0.2390
    1DIPC   D2A 5454  26.021  23.645   5.705 -0.0736  0.2264 -0.1697
    1DIPC   D3A 5455  25.975  23.498   5.237  0.2005 -0.1999 -0.0358
    1DIPC   C4A 5456  26.133  23.230   5.136 -0.0786 -0.0002 -0.0481
    1DIPC   C1B 5457  26.624  23.145   5.998  0.0177  0.2728  0.1169
    1DIPC   D2B 5458  26.336  23.278   5.593  0.0355 -0.1352  0.0391
    1DIPC   D3B 5459  26.599  23.711   5.645  0.1839  0.0142  0.1392
    1DIPC   C4B 5460  26.968  23.969   5.915 -0.0714  0.2654 -0.0031
    1DIPC   NC3 5461   8.610  26.669   6.355 -0.1231  0.1301  0.0254
    1DIPC   PO4 5462   8.324  26.837   6.072 -0.0441  0.3491  0.0157
    1DIPC   GL1 5463   8.575  26.597   5.848 -0.0498 -0.2196 -0.1867
    1DIPC   GL2 5464   8.309  26.530   5.592 -0.0374  0.0733 -0.1016
    1DIPC   C1A 5465   8.718  26.781   5.385  0.2144  0.5639  0.2219
    1DIPC   D2A 5466   9.007  26.811   5.116  0.2691 -0.1640  0.2593
    1DIPC   D3A 5467   9.224  27.105   5.122  0.0677 -0.0607  0.2187
    1DIPC   C4A 5468   9.496  27.094   4.720  0.0386  0.3472 -0.2262
    1DIPC   C1B 5469   8.293  26.650   5.116 -0.3189  0.1339 -0.1227
    1DIPC   D2B 5470   8.393  26.613   4.759 -0.3694  0.1169  0.1245
    1DIPC   D3B 5471   8.630  27.013   4.865  0.1638 -0.0751  0.1815
    1DIPC   C4B 5472   8.570  27.302   4.547 -0.0426  0.3246 -0.0076
    1DIPC   NC3 5473  10.590  29.030   6.964 -0.0113  0.0909 -0.2170
    1DIPC   PO4 5474  10.398  28.594   6.878  0.1659 -0.1495 -0.1050
    1DIPC   GL1 5475  10.377  28.968   6.549  0.5027  0.2076  0.0196
    1DIPC   GL2 5476  10.134  29.143   6.429 -0.1956  0.0210 -0.1313
    1DIPC   C1A 5477  10.550  29.143   6.115  0.0036  0.1503 -0.2447
    1DIPC   D2A 5478  10.637  29.220   5.702 -0.4304 -0.0706  0.0648
    1DIPC   D3A 5479  10.374  29.471   5.706 -0.1979 -0.3181  0.2570
    1DIPC   C4A 5480  10.205  29.450   5.156 -0.1175 -0.1521  0.1753
    1DIPC   C1B 5481  10.183  29.511   6.131  0.0332  0.1479 -0.0600
    1DIPC   D2B 5482  10.307   0.026   5.980  0.1692 -0.4041  0.0534
    1DIPC   D3B 5483  10.509   0.167   5.506 -0.0501  0.2262 -0.1706
    1DIPC   C4B 5484  10.370   0.478   5.316 -0.0147 -0.0451 -0.3322
    1DIPC   NC3 5485   6.655  15.590   5.696 -0.0669  0.3103 -0.0995
    1DIPC   PO4 5486   6.936  15.253   5.698  0.0005  0.0014 -0.4037
    1DIPC   GL1 5487   6.672  15.143   5.475  0.0340  0.0476  0.2932
    1DIPC   GL2 5488   6.591  15.271   5.181 -0.0088  0.3924  0.0435
    1DIPC   C1A 5489   6.441  14.794   5.349  0.0586  0.0240 -0.1047
    1DIPC   D2A 5490   6.497  14.393   5.140  0.1801  0.1559  0.1195
    1DIPC   D3A 5491   6.604  14.137   4.718  0.1455  0.0872 -0.1717
    1DIPC   C4A 5492   6.341  13.926   4.474 -0.1658  0.1122  0.0637
    1DIPC   C1B 5493   6.939  15.222   4.933  0.2080 -0.0556  0.1198
    1DIPC   D2B 5494   7.150  15.627   4.690  0.1922 -0.1962  0.0413
    1DIPC   D3B 5495   6.641  15.692   4.641 -0.1647 -0.0962  0.0053
    1DIPC   C4B 5496   6.498  15.307   4.721 -0.2982  0.4424  0.1897
    1DIPC   NC3 5497  28.347  27.390   6.285  0.1213  0.1690 -0.1462
    1DIPC   PO4 5498  28.124  27.068   6.004  0.0748  0.3235 -0.0230
    1DIPC   GL1 5499  27.953  26.866   5.644  0.2539  0.1042 -0.0475
    1DIPC   GL2 5500  27.666  27.102   5.673  0.0057 -0.1137 -0.0193
    1DIPC   C1A 5501  27.854  27.014   5.199 -0.0461  0.0305  0.0599
    1DIPC   D2A 5502  27.616  27.245   4.878  0.1651 -0.2164  0.0074
    1DIPC   D3A 5503  27.485  27.003   4.496  0.0522  0.0786  0.0093
    1DIPC   C4A 5504  27.543  26.549   4.424 -0.0439 -0.0369 -0.1207
    1DIPC   C1B 5505  27.760  27.450   5.430 -0.3870  0.0187  0.0050
    1DIPC   D2B 5506  28.010  27.544   5.036  0.3179  0.0100  0.2091
    1DIPC   D3B 5507  28.047  27.816   4.599  0.0981  0.2502  0.2555
    1DIPC   C4B 5508  27.740  27.792   4.337 -0.0243  0.0888 -0.0170
    1DIPC   NC3 5509  29.440  23.711   6.549  0.1271 -0.0157  0.0334
    1DIPC   PO4 5510  29.677  24.012   6.378 -0.0923  0.0729  0.0942
    1DIPC   GL1 5511  29.536  24.021   6.042 -0.0910 -0.1179 -0.0842
    1DIPC   GL2 5512  29.317  24.264   6.132 -0.0622 -0.0379  0.0778
    1DIPC   C1A 5513  29.393  24.166   5.565 -0.1076  0.2694  0.0539
    1DIPC   D2A 5514  29.291  24.538   5.448 -0.1703 -0.1520 -0.0336
    1DIPC   D3A 5515  29.518  24.595   5.015 -0.1821 -0.3484 -0.0074
    1DIPC   C4A 5516  29.607  24.169   4.759  0.1611 -0.2436  0.1256
    1DIPC   C1B 5517  28.968  24.403   5.810 -0.0685  0.3428 -0.1389
    1DIPC   D2B 5518  28.845  24.759   5.620  0.1862 -0.2501  0.0608
    1DIPC   D3B 5519  28.672  24.873   5.159  0.1109  0.0065  0.1424
    1DIPC   C4B 5520  28.683  25.300   5.069  0.4011 -0.0818  0.1220
    1DIPC   NC3 5521  10.674  11.505   6.562 -0.0803 -0.2817 -0.1664
    1DIPC   PO4 5522  10.380  11.716   6.324  0.0861  0.3217  0.2176
    1DIPC   GL1 5523  10.004  11.548   6.070  0.0246  0.0694  0.0309
    1DIPC   GL2 5524   9.823  11.309   6.148 -0.1202 -0.0450 -0.0056
    1DIPC   C1A 5525   9.621  11.676   5.863 -0.0120 -0.3007  0.2838
    1DIPC   D2A 5526   9.476  11.864   5.480 -0.1627  0.1456  0.2105
    1DIPC   D3A 5527   9.140  11.729   5.469  0.0624  0.2618  0.0270
    1DIPC   C4A 5528   9.090  11.366   5.231  0.0393  0.3453 -0.1746
    1DIPC   C1B 5529  10.155  10.994   6.063  0.0914 -0.1850  0.3652
    1DIPC   D2B 5530  10.479  11.296   6.120  0.0212  0.3153 -0.1469
    1DIPC   D3B 5531  10.506  11.580   5.778 -0.2716 -0.0548 -0.0326
    1DIPC   C4B 5532  10.415  11.085   5.621  0.2832  0.0829 -0.0809
    1DIPC   NC3 5533  25.472   3.848   6.685  0.0724 -0.0628 -0.4082
    1DIPC   PO4 5534  25.743   3.560   6.860  0.0449  0.0994 -0.2553
    1DIPC   GL1 5535  25.862   3.552   6.482 -0.0248 -0.1527  0.1231
    1DIPC   GL2 5536  25.618   3.439   6.306  0.0173  0.1968 -0.0313
    1DIPC   C1A 5537  26.163   3.658   6.256  0.3102 -0.2746 -0.0606
    1DIPC   D2A 5538  26.093   3.449   5.841 -0.2822  0.0140 -0.1669
    1DIPC   D3A 5539  26.293   3.738   5.594 -0.4293  0.1738 -0.2291
    1DIPC   C4A 5540  26.247   3.542   5.156  0.3431 -0.0217  0.1357
    1DIPC   C1B 5541  25.352   3.822   6.027 -0.0461  0.0668  0.1876
    1DIPC   D2B 5542  25.071   3.835   5.778 -0.2552  0.0239 -0.1686
    1DIPC   D3B 5543  25.267   3.853   5.319 -0.0265  0.1831 -0.3222
    1DIPC   C4B 5544  25.444   4.189   5.135  0.0101 -0.1128  0.2723
    1DIPC   NC3 5545   5.582  11.476   5.726 -0.0956 -0.2827  0.2659
    1DIPC   PO4 5546   5.228  11.169   5.705 -0.4067  0.1768 -0.0858
    1DIPC   GL1 5547   5.057  10.922   5.478  0.1855 -0.2082  0.0911
    1DIPC   GL2 5548   5.300  10.788   5.323 -0.1112  0.2829  0.1327
    1DIPC   C1A 5549   4.875  10.626   5.165 -0.0347 -0.0579 -0.3277
    1DIPC   D2A 5550   5.145  10.597   4.843  0.0392  0.0618 -0.2760
    1DIPC   D3A 5551   5.551  10.853   4.744  0.2229 -0.0520 -0.3427
    1DIPC   C4A 5552   5.628  11.207   5.067  0.1890 -0.0487 -0.0902
    1DIPC   C1B 5553   5.594  10.486   5.124 -0.1921 -0.2343  0.2129
    1DIPC   D2B 5554   5.527  10.293   4.790  0.1690 -0.3519  0.0915
    1DIPC   D3B 5555   5.490  10.479   4.407 -0.3253  0.0444  0.2012
    1DIPC   C4B 5556   5.935  10.677   4.370  0.3403  0.0368 -0.0649
    1DIPC   NC3 5557   0.302  19.263   6.261 -0.0104 -0.0468  0.0550
    1DIPC   PO4 5558   0.132  18.890   6.352  0.0367  0.0104  0.0748
    1DIPC   GL1 5559   0.059  18.970   5.883 -0.1489 -0.3756  0.3201
    1DIPC   GL2 5560   0.242  18.656   5.711  0.1996 -0.1038  0.1980
    1DIPC   C1A 5561   0.044  19.074   5.469 -0.1818 -0.0733  0.1351
    1DIPC   D2A 5562   0.193  19.213   5.155 -0.0701  0.0639  0.2027
    1DIPC   D3A 5563   0.178  19.539   4.715 -0.2220 -0.1398  0.2733
    1DIPC   C4A 5564   0.257  19.446   4.187  0.0724  0.1504 -0.3055
    1DIPC   C1B 5565   0.053  18.287   5.486 -0.0588  0.1862  0.1047
    1DIPC   D2B 5566  29.703  17.953   5.703 -0.1261 -0.0298 -0.0310
    1DIPC   D3B 5567  29.674  17.938   5.239  0.0861 -0.2516  0.1886
    1DIPC   C4B 5568  29.628  18.290   4.977 -0.0644  0.3190 -0.2303
    1DIPC   NC3 5569  13.736  19.192   6.151  0.0852  0.0008  0.1143
    1DIPC   PO4 5570  13.590  18.797   5.878 -0.2248  0.0318 -0.0508
    1DIPC   GL1 5571  13.357  18.810   5.482  0.1553 -0.1057  0.1547
    1DIPC   GL2 5572  13.200  18.499   5.585  0.0435  0.1554 -0.1788
    1DIPC   C1A 5573  13.120  18.833   5.086 -0.4090 -0.1887  0.1924
    1DIPC   D2A 5574  12.966  18.719   4.752  0.3414 -0.1036 -0.0853
    1DIPC   D3A 5575  13.013  18.284   4.694  0.0219 -0.1126  0.0836
    1DIPC   C4A 5576  13.410  18.250   4.402 -0.0295  0.2505 -0.2149
    1DIPC   C1B 5577  12.934  18.343   5.221 -0.3672  0.2538 -0.2619
    1DIPC   D2B 5578  12.774  17.984   5.200  0.1526 -0.1797  0.0146
    1DIPC   D3B 5579  12.582  18.040   4.731 -0.2727  0.3130 -0.2548
    1DIPC   C4B 5580  12.584  18.367   4.447 -0.0715  0.1449  0.0087
    1DIPC   NC3 5581   9.583   5.247   7.399 -0.1403 -0.1159 -0.1505
    1DIPC   PO4 5582   9.986   5.432   7.266 -0.0527 -0.0889  0.0915
    1DIPC   GL1 5583  10.122   5.285   6.737 -0.0240  0.1310  0.0558
    1DIPC   GL2 5584  10.431   5.071   6.671  0.1786  0.0714 -0.0385
    1DIPC   C1A 5585  10.155   5.512   6.426 -0.1023 -0.1746  0.0188
    1DIPC   D2A 5586   9.844   5.805   6.335 -0.0169 -0.2211  0.1954
    1DIPC   D3A 5587   9.534   5.821   5.995 -0.4005 -0.1602  0.0595
    1DIPC   C4A 5588   9.229   5.566   6.096  0.0758 -0.0348 -0.1323
    1DIPC   C1B 5589  10.498   4.927   6.220  0.1530  0.2118 -0.0053
    1DIPC   D2B 5590  10.294   4.847   5.873  0.4344 -0.1950  0.0321
    1DIPC   D3B 5591   9.879   4.839   5.617 -0.1376  0.2649  0.2774
    1DIPC   C4B 5592   9.718   4.593   5.444  0.3326 -0.0694  0.1920
    1DIPC   NC3 5593  11.632   2.750   7.637  0.2262  0.1369 -0.2816
    1DIPC   PO4 5594  11.378   2.470   7.660  0.0504 -0.2298 -0.0623
    1DIPC   GL1 5595  11.453   2.641   7.154 -0.4916  0.1419 -0.2235
    1DIPC   GL2 5596  11.531   2.358   6.952 -0.1121 -0.2981  0.2317
    1DIPC   C1A 5597  11.312   2.862   6.810  0.0215  0.0205  0.0689
    1DIPC   D2A 5598  11.075   2.962   6.489 -0.1390  0.0743  0.0519
    1DIPC   D3A 5599  11.402   2.860   6.272  0.0280 -0.0140 -0.0465
    1DIPC   C4A 5600  11.656   3.138   6.223 -0.0917  0.1341  0.1064
    1DIPC   C1B 5601  11.769   2.605   6.640 -0.2357  0.1031  0.0206
    1DIPC   D2B 5602  12.145   2.685   6.599 -0.3753  0.0652 -0.4900
    1DIPC   D3B 5603  12.442   2.620   6.310  0.3832 -0.0030 -0.1570
    1DIPC   C4B 5604  12.450   2.658   5.919 -0.1783  0.0211  0.1289
    1DIPC   NC3 5605   8.672   2.270   7.202  0.0833 -0.0979  0.3260
    1DIPC   PO4 5606   8.799   2.030   6.859 -0.0736 -0.1786 -0.0186
    1DIPC   GL1 5607   8.965   2.253   6.448  0.0894 -0.0184 -0.3904
    1DIPC   GL2 5608   8.892   2.134   6.142  0.1699 -0.0223 -0.0524
    1DIPC   C1A 5609   9.361   2.167   6.203  0.0191  0.1403 -0.1712
    1DIPC   D2A 5610   9.691   2.268   6.461  0.4649 -0.1598  0.1708
    1DIPC   D3A 5611   9.700   2.540   6.081  0.0687 -0.0088  0.0996
    1DIPC   C4A 5612   9.919   2.719   5.804  0.1716 -0.0950 -0.0066
    1DIPC   C1B 5613   8.870   2.213   5.644  0.0750  0.0432  0.0595
    1DIPC   D2B 5614   9.101   2.408   5.259 -0.1966 -0.1794 -0.1292
    1DIPC   D3B 5615   9.330   2.768   5.581  0.1879 -0.2187  0.0776
    1DIPC   C4B 5616   9.428   2.915   5.923 -0.0364  0.3144  0.0951
    1DIPC   NC3 5617  29.111  26.686   6.262  0.0690  0.2617  0.2881
    1DIPC   PO4 5618  28.962  26.755   5.780  0.0357  0.0275 -0.0663
    1DIPC   GL1 5619  28.692  27.137   5.557 -0.0814 -0.0406 -0.1811
    1DIPC   GL2 5620  28.834  27.337   5.336  0.2307  0.1787 -0.3994
    1DIPC   C1A 5621  28.378  27.193   5.145 -0.1283 -0.0064 -0.1923
    1DIPC   D2A 5622  28.258  27.240   4.776  0.0655  0.1550 -0.0421
    1DIPC   D3A 5623  28.502  27.607   4.562 -0.3684 -0.2548 -0.2837
    1DIPC   C4A 5624  28.463  27.818   4.156  0.0269 -0.2484 -0.1827
    1DIPC   C1B 5625  28.750  27.261   4.861  0.0784  0.0574 -0.0381
    1DIPC   D2B 5626  28.717  27.136   4.387 -0.0039 -0.2384  0.0921
    1DIPC   D3B 5627  28.736  26.741   4.221 -0.2935 -0.1271  0.2327
    1DIPC   C4B 5628  28.454  26.884   3.977  0.1312  0.0851  0.3642
    1DIPC   NC3 5629  10.325  25.587   5.622  0.0898 -0.0557 -0.3830
    1DIPC   PO4 5630  10.287  25.326   5.896  0.1313  0.4223 -0.1183
    1DIPC   GL1 5631  10.584  25.155   5.700  0.0969  0.0252 -0.1382
    1DIPC   GL2 5632  10.463  25.172   5.387  0.1384 -0.2115  0.1851
    1DIPC   C1A 5633  10.918  25.218   5.319 -0.2807 -0.0039 -0.0812
    1DIPC   D2A 5634  11.111  25.396   5.040 -0.0761  0.1672  0.0742
    1DIPC   D3A 5635  10.991  25.391   4.567 -0.0876 -0.0585 -0.2318
    1DIPC   C4A 5636  11.063  25.287   4.123 -0.4034 -0.1477  0.0581
    1DIPC   C1B 5637  10.630  25.264   4.893 -0.0135  0.0849 -0.1257
    1DIPC   D2B 5638  10.549  25.177   4.471 -0.0900 -0.2626 -0.2514
    1DIPC   D3B 5639  10.447  25.340   4.007  0.2067 -0.5806  0.0420
    1DIPC   C4B 5640  10.738  25.443   3.680  0.3216  0.1018  0.1299
    1DIPC   NC3 5641   3.306   0.250   6.576  0.0314 -0.1674  0.6356
    1DIPC   PO4 5642   3.453  29.736   6.413 -0.1164 -0.0203  0.1979
    1DIPC   GL1 5643   3.559   0.013   5.965  0.0397 -0.1548  0.1188
    1DIPC   GL2 5644   3.846   0.008   6.037  0.0356  0.1329  0.0586
    1DIPC   C1A 5645   3.647   0.251   5.592 -0.4846  0.1715  0.1213
    1DIPC   D2A 5646   4.038   0.509   5.380 -0.0230  0.0252 -0.0798
    1DIPC   D3A 5647   3.832   0.533   4.994 -0.1119  0.2748 -0.0966
    1DIPC   C4A 5648   3.576   0.947   4.864  0.1033 -0.2082  0.1154
    1DIPC   C1B 5649   3.981  29.714   5.601 -0.2172  0.0176 -0.0526
    1DIPC   D2B 5650   3.715  29.704   5.226  0.2787  0.0176 -0.1473
    1DIPC   D3B 5651   3.597   0.035   4.817  0.1353 -0.0699  0.0764
    1DIPC   C4B 5652   3.574   0.512   4.581 -0.1950  0.1062 -0.1653
    1DIPC   NC3 5653  18.266  18.098   6.112  0.5191  0.1018  0.1068
    1DIPC   PO4 5654  18.077  18.418   6.264  0.0477  0.0784  0.0217
    1DIPC   GL1 5655  18.174  18.550   5.802 -0.2286 -0.1216  0.2799
    1DIPC   GL2 5656  17.991  18.305   5.601  0.1213 -0.0479  0.2008
    1DIPC   C1A 5657  18.307  18.598   5.374 -0.0074 -0.1940 -0.2518
    1DIPC   D2A 5658  18.398  18.757   4.921 -0.2587  0.0775  0.3137
    1DIPC   D3A 5659  17.956  18.750   5.106 -0.1590  0.2976 -0.1432
    1DIPC   C4A 5660  17.597  18.645   4.978 -0.3131  0.1364  0.0177
    1DIPC   C1B 5661  18.051  18.216   5.154 -0.0472 -0.0683 -0.0205
    1DIPC   D2B 5662  17.986  18.418   4.717 -0.3212  0.2489 -0.2070
    1DIPC   D3B 5663  18.300  18.054   4.752 -0.2483 -0.0856  0.0988
    1DIPC   C4B 5664  18.623  18.015   5.109 -0.2686 -0.2421  0.1318
    1DIPC   NC3 5665   1.768   2.081   7.121  0.1922 -0.2023 -0.3115
    1DIPC   PO4 5666   1.546   2.142   6.704  0.0645  0.0617  0.1344
    1DIPC   GL1 5667   1.586   2.316   6.240  0.1434 -0.1270 -0.1204
    1DIPC   GL2 5668   1.356   2.301   5.968 -0.4089 -0.1639 -0.3190
    1DIPC   C1A 5669   1.756   2.670   6.105 -0.0234 -0.0736  0.1432
    1DIPC   D2A 5670   2.134   2.689   5.771 -0.2987 -0.0896 -0.3202
    1DIPC   D3A 5671   1.857   3.031   5.616  0.0554  0.0584  0.0534
    1DIPC   C4A 5672   1.855   2.929   5.214  0.0522  0.1690  0.0680
    1DIPC   C1B 5673   1.500   2.095   5.602  0.0244 -0.0043  0.0670
    1DIPC   D2B 5674   1.610   1.982   5.131 -0.0519 -0.4119  0.2660
    1DIPC   D3B 5675   1.152   1.935   5.043  0.0140 -0.1923 -0.1299
    1DIPC   C4B 5676   0.939   2.227   4.734  0.4284 -0.1750 -0.1074
    1DIPC   NC3 5677  27.401   5.964   7.358 -0.2480  0.0318  0.1005
    1DIPC   PO4 5678  27.496   6.083   6.931 -0.2556 -0.3130 -0.0944
    1DIPC   GL1 5679  27.775   6.154   6.527  0.3105 -0.0874 -0.0202
    1DIPC   GL2 5680  27.868   5.902   6.467 -0.0755  0.1490 -0.0782
    1DIPC   C1A 5681  27.908   6.427   6.271  0.2641  0.1694 -0.1622
    1DIPC   D2A 5682  28.314   6.673   6.265  0.0308  0.0649 -0.1106
    1DIPC   D3A 5683  28.582   6.462   6.039  0.1852 -0.0113  0.0459
    1DIPC   C4A 5684  28.941   6.249   6.163 -0.0526  0.0366 -0.1208
    1DIPC   C1B 5685  28.044   5.657   6.091  0.2530 -0.4438 -0.2046
    1DIPC   D2B 5686  28.067   5.512   5.697 -0.1014  0.2643  0.1897
    1DIPC   D3B 5687  27.700   5.274   5.512 -0.2837  0.1729 -0.3982
    1DIPC   C4B 5688  27.660   5.192   5.128 -0.1621 -0.1514  0.1269
    1DIPC   NC3 5689  10.970  21.506   5.967 -0.1956  0.2099  0.1822
    1DIPC   PO4 5690  10.762  21.151   5.767 -0.1096 -0.2241  0.1058
    1DIPC   GL1 5691  10.726  21.009   5.348 -0.0945 -0.2985  0.0350
    1DIPC   GL2 5692  10.443  20.755   5.340 -0.2627 -0.2165  0.2768
    1DIPC   C1A 5693  10.711  21.249   4.946 -0.1144  0.0069 -0.2696
    1DIPC   D2A 5694  10.827  21.432   4.505  0.2291 -0.0240  0.0554
    1DIPC   D3A 5695  10.679  21.063   4.404  0.0871 -0.2834  0.1880
    1DIPC   C4A 5696  10.458  21.089   4.124 -0.0191  0.2914 -0.3296
    1DIPC   C1B 5697  10.221  20.492   5.122 -0.2124  0.3588  0.2432
    1DIPC   D2B 5698   9.954  20.069   5.179 -0.0235  0.2108  0.1578
    1DIPC   D3B 5699  10.359  20.024   5.043  0.2137 -0.1110  0.0642
    1DIPC   C4B 5700  10.494  20.229   4.738  0.1463 -0.4993  0.2255
    1DIPC   NC3 5701   5.631  17.133   6.952  0.1017  0.1077 -0.2358
    1DIPC   PO4 5702   5.723  17.163   6.474  0.1220  0.0311  0.2287
    1DIPC   GL1 5703   5.810  17.096   6.040  0.2858 -0.1198  0.1537
    1DIPC   GL2 5704   5.895  17.422   5.943  0.1402 -0.3125  0.0801
    1DIPC   C1A 5705   5.603  17.057   5.644  0.1975 -0.2701 -0.1278
    1DIPC   D2A 5706   5.273  16.950   5.480 -0.1189  0.0915 -0.0481
    1DIPC   D3A 5707   5.234  16.820   5.061 -0.1268 -0.0705  0.0814
    1DIPC   C4A 5708   5.325  17.172   4.710  0.3474 -0.1145 -0.2405
    1DIPC   C1B 5709   6.039  17.341   5.554 -0.1674  0.0926  0.2338
    1DIPC   D2B 5710   6.381  17.286   5.257  0.2045 -0.1523  0.1382
    1DIPC   D3B 5711   6.110  17.072   5.080  0.0280  0.0024  0.0303
    1DIPC   C4B 5712   5.685  16.960   5.202 -0.4961  0.0857 -0.0568
    1DIPC   NC3 5713  16.317  25.694   6.258 -0.1336  0.0540  0.1269
    1DIPC   PO4 5714  16.224  26.108   6.319  0.0387  0.1223 -0.0829
    1DIPC   GL1 5715  16.306  26.222   5.802 -0.1456 -0.1153 -0.0311
    1DIPC   GL2 5716  16.041  26.157   5.557 -0.0825 -0.2140  0.4556
    1DIPC   C1A 5717  16.734  26.226   5.652  0.0768 -0.2274 -0.0095
    1DIPC   D2A 5718  17.004  26.369   5.254 -0.0192  0.0549  0.0622
    1DIPC   D3A 5719  17.316  26.112   5.469  0.1199 -0.0762  0.3229
    1DIPC   C4A 5720  17.740  25.938   5.567  0.0896  0.2731  0.0056
    1DIPC   C1B 5721  16.414  26.212   5.238  0.2763  0.1176  0.2763
    1DIPC   D2B 5722  16.584  26.554   5.053  0.0498 -0.2075 -0.1396
    1DIPC   D3B 5723  16.236  26.843   5.024  0.0404 -0.2820 -0.4129
    1DIPC   C4B 5724  16.308  27.236   4.837 -0.2963 -0.2798 -0.0701
    1DIPC   NC3 5725  13.130  26.475   6.309  0.2016  0.0153  0.4067
    1DIPC   PO4 5726  12.860  26.820   6.283  0.1600  0.2352  0.1155
    1DIPC   GL1 5727  12.929  27.070   5.824  0.0231  0.1803  0.0158
    1DIPC   GL2 5728  13.194  27.088   5.756  0.0596 -0.0120 -0.3701
    1DIPC   C1A 5729  12.546  27.197   5.561  0.0163  0.2924  0.1256
    1DIPC   D2A 5730  12.282  27.549   5.483  0.1265  0.0009  0.3226
    1DIPC   D3A 5731  12.204  27.636   5.002 -0.2546 -0.3463  0.1057
    1DIPC   C4A 5732  12.325  27.392   4.644 -0.0605 -0.2241  0.1234
    1DIPC   C1B 5733  13.032  27.230   5.350  0.3010  0.4174  0.2120
    1DIPC   D2B 5734  12.815  27.410   4.971  0.0523 -0.1349 -0.1405
    1DIPC   D3B 5735  12.948  27.875   4.864 -0.0943  0.0294  0.1375
    1DIPC   C4B 5736  12.800  28.071   5.206 -0.0707  0.0767  0.0271
    1DIPC   NC3 5737  13.927   5.577   8.503  0.2593 -0.0744  0.0178
    1DIPC   PO4 5738  13.656   6.006   8.458 -0.0006 -0.0399  0.1779
    1DIPC   GL1 5739  13.598   5.878   8.079 -0.0829 -0.1513 -0.0788
    1DIPC   GL2 5740  13.380   5.684   7.936  0.3178  0.1525 -0.1802
    1DIPC   C1A 5741  13.844   5.869   7.662  0.0828  0.2582  0.1531
    1DIPC   D2A 5742  14.226   5.661   7.481  0.0611 -0.0279 -0.3373
    1DIPC   D3A 5743  14.165   5.665   7.160 -0.2534 -0.0329  0.2402
    1DIPC   C4A 5744  13.831   5.582   6.892  0.1858 -0.0697 -0.1922
    1DIPC   C1B 5745  13.446   5.609   7.603  0.1351 -0.2445 -0.2124
    1DIPC   D2B 5746  13.577   5.393   7.302 -0.2030  0.0305  0.0563
    1DIPC   D3B 5747  13.556   5.002   7.302 -0.0675  0.0202 -0.1089
    1DIPC   C4B 5748  13.725   5.038   6.956 -0.2494  0.0736 -0.0897
    1DIPC   NC3 5749  24.742  27.749   7.065 -0.0543  0.0465 -0.2436
    1DIPC   PO4 5750  25.142  27.816   6.916 -0.1742 -0.1099  0.3304
    1DIPC   GL1 5751  25.207  28.028   6.519 -0.1352  0.0131  0.0242
    1DIPC   GL2 5752  25.276  27.895   6.221  0.0264  0.4826 -0.2363
    1DIPC   C1A 5753  25.073  28.379   6.272  0.3074  0.2373  0.1832
    1DIPC   D2A 5754  25.411  28.649   6.154  0.1358 -0.3069 -0.1464
    1DIPC   D3A 5755  25.234  28.713   5.773 -0.0859  0.2551 -0.0595
    1DIPC   C4A 5756  24.892  28.687   5.645 -0.0564 -0.0137  0.0236
    1DIPC   C1B 5757  24.801  27.967   6.222  0.1815  0.2541 -0.0438
    1DIPC   D2B 5758  24.404  27.802   5.992  0.1657  0.1432 -0.2473
    1DIPC   D3B 5759  24.283  28.068   5.707  0.1502 -0.0595 -0.1556
    1DIPC   C4B 5760  24.306  28.159   5.185  0.3198  0.0730 -0.0921
    1DIPC   NC3 5761  25.530  20.194   6.093  0.1862 -0.2143 -0.0030
    1DIPC   PO4 5762  25.644  19.803   5.961 -0.0250 -0.1072  0.2459
    1DIPC   GL1 5763  25.602  19.595   5.590  0.0310  0.1591  0.0608
    1DIPC   GL2 5764  25.802  19.637   5.252  0.1328  0.0524 -0.1642
    1DIPC   C1A 5765  25.367  19.435   5.148  0.1769  0.0150 -0.1371
    1DIPC   D2A 5766  25.157  19.202   4.775 -0.1849  0.1961 -0.1447
    1DIPC   D3A 5767  24.997  18.698   4.842  0.0337 -0.2304 -0.0781
    1DIPC   C4A 5768  25.207  18.384   4.496 -0.0127 -0.1348 -0.1578
    1DIPC   C1B 5769  26.123  19.742   5.146  0.1250 -0.0130  0.0061
    1DIPC   D2B 5770  26.568  19.809   5.241 -0.2933  0.0070  0.0664
    1DIPC   D3B 5771  26.535  20.025   4.919 -0.0866  0.0936  0.0613
    1DIPC   C4B 5772  26.159  20.157   4.790 -0.1498  0.2254 -0.0293
    1DIPC   NC3 5773  20.087  26.567   6.179 -0.1715 -0.0289  0.0995
    1DIPC   PO4 5774  20.500  26.531   6.247  0.1444  0.0422 -0.2647
    1DIPC   GL1 5775  20.680  26.596   5.806  0.0464  0.1749 -0.0525
    1DIPC   GL2 5776  20.825  26.374   5.896 -0.3955  0.1602  0.1358
    1DIPC   C1A 5777  20.771  26.460   5.366  0.1868 -0.2346 -0.2411
    1DIPC   D2A 5778  20.565  26.490   4.913 -0.0588 -0.2345  0.2657
    1DIPC   D3A 5779  20.263  26.549   5.154  0.0295  0.3872  0.0978
    1DIPC   C4A 5780  19.952  26.868   5.158  0.2000  0.1644 -0.0529
    1DIPC   C1B 5781  21.126  26.190   5.570  0.0352 -0.2642 -0.3221
    1DIPC   D2B 5782  20.958  25.923   5.214 -0.1290 -0.1109  0.0613
    1DIPC   D3B 5783  20.658  25.976   5.435 -0.1219  0.0959 -0.0962
    1DIPC   C4B 5784  20.371  26.028   5.108  0.0671  0.1597 -0.0505
    1DIPC   NC3 5785  22.596   5.500   7.875 -0.0746 -0.3300  0.4756
    1DIPC   PO4 5786  22.324   5.884   7.880 -0.0951 -0.1521 -0.3553
    1DIPC   GL1 5787  22.011   5.984   7.578 -0.1864  0.1449 -0.3029
    1DIPC   GL2 5788  21.892   5.709   7.466 -0.1317 -0.2263 -0.5733
    1DIPC   C1A 5789  21.760   6.091   7.111 -0.1650  0.2584 -0.1313
    1DIPC   D2A 5790  21.546   5.909   6.706  0.0077 -0.1391  0.3659
    1DIPC   D3A 5791  21.584   5.589   6.379 -0.0329 -0.0040  0.2163
    1DIPC   C4A 5792  21.148   5.615   6.235  0.0461  0.1612  0.1208
    1DIPC   C1B 5793  21.344   5.714   7.349  0.0685 -0.1906  0.0619
    1DIPC   D2B 5794  20.962   5.785   7.409  0.2792  0.2621 -0.0626
    1DIPC   D3B 5795  21.007   5.534   7.020 -0.0374  0.0322 -0.1197
    1DIPC   C4B 5796  21.022   5.792   6.704 -0.1079 -0.1860  0.0188
    1DIPC   NC3 5797  28.929  26.265   5.951  0.0463  0.0772  0.1370
    1DIPC   PO4 5798  29.339  26.450   5.899 -0.1168 -0.0262 -0.0425
    1DIPC   GL1 5799  29.163  26.337   5.512 -0.2305  0.2155  0.0467
    1DIPC   GL2 5800  28.925  26.088   5.512  0.2021 -0.2495 -0.0431
    1DIPC   C1A 5801  28.897  26.472   5.125  0.0807 -0.1255  0.0319
    1DIPC   D2A 5802  28.810  26.817   5.107  0.1359  0.3277  0.1763
    1DIPC   D3A 5803  29.084  26.714   4.716  0.4372 -0.3283  0.5999
    1DIPC   C4A 5804  29.267  26.675   4.344 -0.1868 -0.2543 -0.2437
    1DIPC   C1B 5805  28.642  26.066   5.227  0.1724 -0.3953 -0.3126
    1DIPC   D2B 5806  28.299  26.144   5.013 -0.0673 -0.1367 -0.0581
    1DIPC   D3B 5807  28.372  26.296   4.664 -0.0807 -0.0470  0.0283
    1DIPC   C4B 5808  28.783  26.253   4.613  0.1139  0.0182  0.1923
    1DIPC   NC3 5809   0.036  10.702   6.410  0.0047 -0.0179 -0.0628
    1DIPC   PO4 5810   0.572  10.640   6.394 -0.1210  0.3840  0.0776
    1DIPC   GL1 5811   0.792  10.880   6.032  0.0466  0.0369  0.1611
    1DIPC   GL2 5812   0.897  10.642   5.872  0.0434 -0.2959 -0.1170
    1DIPC   C1A 5813   0.780  11.237   5.855 -0.2189  0.1582  0.0218
    1DIPC   D2A 5814   0.374  11.349   5.722  0.3678  0.1223 -0.0707
    1DIPC   D3A 5815   0.087  11.453   5.999  0.0172 -0.3555 -0.1629
    1DIPC   C4A 5816  29.645  11.778   5.944  0.1082 -0.1828  0.0441
    1DIPC   C1B 5817   0.907  10.342   5.494  0.4886  0.2286  0.2251
    1DIPC   D2B 5818   0.727  10.326   5.103  0.1455  0.3984 -0.1259
    1DIPC   D3B 5819   0.264  10.299   5.233 -0.2454 -0.2970 -0.0017
    1DIPC   C4B 5820  29.755  10.474   5.002  0.0972 -0.2388  0.0199
    1DIPC   NC3 5821   6.248  28.217   6.401  0.1119 -0.0869  0.0407
    1DIPC   PO4 5822   6.246  28.513   6.013  0.1437  0.0370 -0.0784
    1DIPC   GL1 5823   6.357  28.177   5.685  0.0570  0.0123  0.0115
    1DIPC   GL2 5824   6.627  28.267   5.523 -0.2015  0.0254  0.0694
    1DIPC   C1A 5825   6.190  28.057   5.251  0.0048  0.1215 -0.2348
    1DIPC   D2A 5826   6.461  28.015   4.995 -0.1503  0.2872 -0.1503
    1DIPC   D3A 5827   6.486  28.386   4.853  0.1066  0.0467 -0.0128
    1DIPC   C4A 5828   6.623  28.840   4.830  0.2235 -0.2500  0.1133
    1DIPC   C1B 5829   6.432  28.528   5.330  0.0093  0.0304  0.1561
    1DIPC   D2B 5830   6.209  28.750   5.074 -0.1837 -0.2716 -0.1512
    1DIPC   D3B 5831   5.963  28.363   4.977  0.2185  0.1932  0.1158
    1DIPC   C4B 5832   5.644  28.275   4.755 -0.3315 -0.2755 -0.3763
    1DIPC   NC3 5833   9.238  21.603   5.554 -0.4301  0.0132 -0.1545
    1DIPC   PO4 5834   9.620  21.915   5.603 -0.3155 -0.3557 -0.2779
    1DIPC   GL1 5835   9.621  21.675   5.209  0.0796 -0.0987 -0.1762
    1DIPC   GL2 5836   9.865  21.817   4.992  0.0994 -0.1133  0.0013
    1DIPC   C1A 5837   9.483  21.369   4.905 -0.0267  0.1962  0.1001
    1DIPC   D2A 5838   9.275  21.383   4.555 -0.0179 -0.0642  0.4264
    1DIPC   D3A 5839   9.692  21.210   4.351 -0.0093 -0.1539 -0.0813
    1DIPC   C4A 5840   9.541  20.950   4.022  0.0435 -0.0719  0.1651
    1DIPC   C1B 5841  10.055  21.971   4.748 -0.3756 -0.0779 -0.2315
    1DIPC   D2B 5842  10.146  21.946   4.300  0.1858 -0.2950  0.1539
    1DIPC   D3B 5843  10.485  22.244   4.142 -0.1014  0.1112  0.0995
    1DIPC   C4B 5844  10.433  22.673   4.262 -0.0700 -0.0019 -0.2931
    1DIPC   NC3 5845  28.775  14.835   6.954 -0.1784  0.1870 -0.1423
    1DIPC   PO4 5846  28.357  14.992   6.769 -0.1487 -0.0491  0.4105
    1DIPC   GL1 5847  28.246  15.043   6.359  0.1544  0.2169  0.3272
    1DIPC   GL2 5848  28.016  15.040   6.394 -0.0270 -0.1186 -0.1290
    1DIPC   C1A 5849  28.203  14.985   5.879  0.0603 -0.1132  0.1790
    1DIPC   D2A 5850  28.192  14.822   5.469  0.0378  0.4162  0.0275
    1DIPC   D3A 5851  28.705  14.892   5.549  0.0358  0.3682  0.1228
    1DIPC   C4A 5852  28.853  14.825   5.198 -0.0404 -0.0182  0.0790
    1DIPC   C1B 5853  27.779  14.900   6.067  0.2373  0.2922 -0.1849
    1DIPC   D2B 5854  27.674  14.841   5.735 -0.2523 -0.1517  0.1522
    1DIPC   D3B 5855  27.446  14.895   5.444 -0.0218 -0.2335  0.1161
    1DIPC   C4B 5856  27.220  14.584   5.261  0.3038 -0.3870 -0.0138
    1DIPC   NC3 5857   5.291   0.749   6.197 -0.2979 -0.0598 -0.0449
    1DIPC   PO4 5858   5.708   0.884   5.991 -0.0047  0.0609  0.0297
    1DIPC   GL1 5859   5.776   1.033   5.588  0.1296 -0.0248 -0.4955
    1DIPC   GL2 5860   6.129   0.900   5.472  0.2971 -0.3458  0.0174
    1DIPC   C1A 5861   5.783   1.092   5.142 -0.0370 -0.0593  0.0180
    1DIPC   D2A 5862   5.962   1.190   4.748 -0.1363 -0.1810  0.2693
    1DIPC   D3A 5863   5.700   1.494   4.807 -0.0622 -0.1113 -0.1801
    1DIPC   C4A 5864   5.936   1.826   4.836 -0.2346  0.1156  0.0077
    1DIPC   C1B 5865   6.445   0.493   5.389  0.2414 -0.0650  0.2362
    1DIPC   D2B 5866   6.461   0.153   5.686  0.1188 -0.1078  0.1129
    1DIPC   D3B 5867   6.353   0.181   6.138 -0.0062 -0.1818 -0.4129
    1DIPC   C4B 5868   6.658   0.024   6.404 -0.2037  0.0728 -0.0180
    1DIPC   NC3 5869  26.505  19.195   6.586  0.1929 -0.1522 -0.0648
    1DIPC   PO4 5870  26.189  18.907   6.320 -0.0381  0.1622  0.0091
    1DIPC   GL1 5871  26.115  18.853   5.880 -0.0134  0.1756 -0.2266
    1DIPC   GL2 5872  25.880  18.656   5.734  0.3397  0.0384 -0.2169
    1DIPC   C1A 5873  26.249  18.755   5.419  0.3246 -0.1648  0.0624
    1DIPC   D2A 5874  26.320  18.908   4.973  0.3792 -0.4765  0.0369
    1DIPC   D3A 5875  26.410  18.577   4.595 -0.1741 -0.1110 -0.2330
    1DIPC   C4A 5876  26.585  18.214   4.660 -0.1218  0.2427  0.1104
    1DIPC   C1B 5877  25.701  18.669   5.411  0.0904  0.1970 -0.2620
    1DIPC   D2B 5878  25.485  18.926   5.075  0.2093 -0.1777  0.0072
    1DIPC   D3B 5879  25.858  19.152   4.986  0.0230  0.1558 -0.1270
    1DIPC   C4B 5880  25.939  18.962   4.517 -0.2029  0.2441  0.0693
    1DIPC   NC3 5881   5.429  27.689   6.030 -0.0524 -0.3105 -0.2299
    1DIPC   PO4 5882   5.798  27.421   5.836 -0.0119 -0.1321 -0.2035
    1DIPC   GL1 5883   5.833  27.391   5.420 -0.2523 -0.2118 -0.1453
    1DIPC   GL2 5884   5.508  27.505   5.412 -0.0201 -0.0631  0.3841
    1DIPC   C1A 5885   5.771  27.215   5.059 -0.1680 -0.0906  0.0534
    1DIPC   D2A 5886   5.798  26.905   4.924  0.1727 -0.0285 -0.0760
    1DIPC   D3A 5887   5.758  26.423   4.775 -0.2105 -0.0346  0.1814
    1DIPC   C4A 5888   5.380  26.231   4.612  0.0321 -0.1776  0.3580
    1DIPC   C1B 5889   5.799  27.799   5.094  0.0376 -0.3074  0.0757
    1DIPC   D2B 5890   5.963  27.878   4.596  0.0766 -0.1818 -0.0871
    1DIPC   D3B 5891   6.086  28.296   4.448 -0.1407  0.0583  0.5032
    1DIPC   C4B 5892   5.880  28.658   4.551 -0.3420 -0.0470 -0.2670
    1DIPC   NC3 5893  11.198   4.617   7.217 -0.1331 -0.2290 -0.0845
    1DIPC   PO4 5894  11.351   4.248   7.242 -0.0065  0.1205  0.0127
    1DIPC   GL1 5895  11.439   4.072   6.846  0.0366  0.2024  0.2261
    1DIPC   GL2 5896  11.649   3.930   6.652 -0.0385 -0.0790  0.2269
    1DIPC   C1A 5897  11.086   3.855   6.647  0.0101  0.0295  0.2521
    1DIPC   D2A 5898  10.819   3.831   6.284  0.0956 -0.5008  0.0011
    1DIPC   D3A 5899  10.996   3.674   5.878 -0.0598  0.0933 -0.2626
    1DIPC   C4A 5900  11.485   3.541   5.910 -0.1219 -0.1802 -0.0798
    1DIPC   C1B 5901  11.845   3.614   6.407  0.2231  0.2492 -0.1203
    1DIPC   D2B 5902  12.247   3.734   6.151  0.1058  0.0239  0.1314
    1DIPC   D3B 5903  12.325   3.698   5.671 -0.0209 -0.0998  0.0832
    1DIPC   C4B 5904  12.270   4.059   5.449 -0.1691 -0.1204  0.2583
    1DIPC   NC3 5905   2.237  28.824   6.524  0.0242 -0.3365 -0.0418
    1DIPC   PO4 5906   2.336  28.660   6.152 -0.0629 -0.4320  0.1490
    1DIPC   GL1 5907   2.397  29.122   5.988  0.3354  0.1378  0.2345
    1DIPC   GL2 5908   2.663  29.161   5.826 -0.0414  0.1106 -0.1806
    1DIPC   C1A 5909   2.239  29.192   5.543 -0.0113 -0.0700 -0.1383
    1DIPC   D2A 5910   2.268  29.099   5.053 -0.2770 -0.0153  0.0695
    1DIPC   D3A 5911   2.642  29.396   4.851 -0.4198 -0.2966 -0.1579
    1DIPC   C4A 5912   2.763  29.345   4.332  0.1063 -0.1154  0.0489
    1DIPC   C1B 5913   2.758  28.760   5.573  0.2713  0.1082  0.1589
    1DIPC   D2B 5914   2.664  28.659   5.186  0.2949 -0.2633 -0.1795
    1DIPC   D3B 5915   2.752  28.820   4.700 -0.1138  0.0208  0.2359
    1DIPC   C4B 5916   2.359  29.069   4.574  0.2836 -0.1430  0.0215
    1DIPC   NC3 5917  26.906  29.700   6.720  0.0402  0.1284 -0.0913
    1DIPC   PO4 5918  26.492   0.081   6.721  0.1585 -0.2085  0.2503
    1DIPC   GL1 5919  26.272   0.300   6.479  0.2588  0.0949  0.2298
    1DIPC   GL2 5920  25.948   0.137   6.323  0.1963 -0.3035 -0.0399
    1DIPC   C1A 5921  26.193   0.571   6.122 -0.2733 -0.0976 -0.0044
    1DIPC   D2A 5922  26.357   0.861   5.875 -0.0153  0.2422  0.3196
    1DIPC   D3A 5923  26.185   0.831   5.446  0.0346 -0.0653  0.1585
    1DIPC   C4A 5924  26.462   0.607   5.266  0.1060 -0.1127  0.0904
    1DIPC   C1B 5925  26.199   0.101   5.911 -0.0969  0.0241  0.1943
    1DIPC   D2B 5926  26.404   0.372   5.676 -0.1035 -0.2793  0.3987
    1DIPC   D3B 5927  26.601  29.802   5.511  0.0146  0.1732 -0.0978
    1DIPC   C4B 5928  26.833  29.825   5.120  0.2268 -0.0674  0.2675
    1DIPC   NC3 5929   1.701   0.277   6.552 -0.2384 -0.1863  0.2135
    1DIPC   PO4 5930   1.750   0.615   6.465  0.0643  0.1401 -0.0406
    1DIPC   GL1 5931   1.993   0.530   6.084  0.1240  0.1131  0.2697
    1DIPC   GL2 5932   2.293   0.756   5.950  0.0367 -0.1880  0.0716
    1DIPC   C1A 5933   2.215   0.310   5.681  0.1422  0.1320  0.0683
    1DIPC   D2A 5934   2.424   0.263   5.298 -0.1112  0.0054 -0.0725
    1DIPC   D3A 5935   2.700   0.413   4.942  0.3168 -0.0224 -0.0536
    1DIPC   C4A 5936   2.576   0.435   4.529  0.0219 -0.0929 -0.0971
    1DIPC   C1B 5937   2.199   0.930   5.535  0.1315  0.4716 -0.0438
    1DIPC   D2B 5938   2.185   1.035   5.100  0.0232 -0.1300 -0.0586
    1DIPC   D3B 5939   2.344   0.759   4.885 -0.2763  0.3756 -0.0473
    1DIPC   C4B 5940   2.503   0.876   4.432  0.2252 -0.0814  0.1975
    1DIPC   NC3 5941  20.827  29.406   7.171 -0.0219 -0.2564  0.0324
    1DIPC   PO4 5942  20.745  29.077   6.954  0.2002  0.1514 -0.0118
    1DIPC   GL1 5943  20.427  29.119   6.574 -0.1218 -0.1202 -0.1509
    1DIPC   GL2 5944  20.054  29.266   6.595 -0.0349 -0.2118  0.0867
    1DIPC   C1A 5945  20.314  29.055   6.164 -0.2355 -0.2331 -0.0794
    1DIPC   D2A 5946  19.937  28.919   5.943  0.1525 -0.0219 -0.0047
    1DIPC   D3A 5947  19.681  29.119   6.238  0.0849  0.1006  0.3006
    1DIPC   C4A 5948  19.487  29.441   6.076 -0.2124  0.1869  0.0388
    1DIPC   C1B 5949  19.730  29.611   6.538  0.1566 -0.1402 -0.0038
    1DIPC   D2B 5950  19.341  29.778   6.405  0.0003 -0.0800 -0.0515
    1DIPC   D3B 5951  19.461   0.179   6.062 -0.1763 -0.3145  0.2631
    1DIPC   C4B 5952  19.535   0.023   5.665  0.0854 -0.2358  0.0941
    1DIPC   NC3 5953   6.742  25.577   5.761  0.1274 -0.1605  0.0948
    1DIPC   PO4 5954   6.670  25.131   6.025  0.0252  0.1140 -0.1053
    1DIPC   GL1 5955   6.619  25.138   5.546  0.0430 -0.0701 -0.1861
    1DIPC   GL2 5956   6.967  25.210   5.495 -0.3801  0.1164  0.1185
    1DIPC   C1A 5957   6.650  24.863   5.190 -0.1953  0.0367 -0.0540
    1DIPC   D2A 5958   6.496  24.886   4.814  0.2805 -0.3508 -0.3007
    1DIPC   D3A 5959   6.681  24.805   4.470  0.2947 -0.2200 -0.1242
    1DIPC   C4A 5960   7.059  24.895   4.560 -0.2186  0.1122  0.0675
    1DIPC   C1B 5961   7.001  25.204   5.081  0.0031  0.0552 -0.0789
    1DIPC   D2B 5962   6.902  25.378   4.809  0.0524  0.1817  0.0954
    1DIPC   D3B 5963   7.030  25.302   4.349  0.0035 -0.0392 -0.1019
    1DIPC   C4B 5964   7.496  25.065   4.253  0.2870  0.2637  0.0475
    1DIPC   NC3 5965  29.464  14.861   6.406 -0.2060  0.4788 -0.3745
    1DIPC   PO4 5966  29.183  15.039   6.682 -0.2116  0.0115  0.2954
    1DIPC   GL1 5967  29.090  15.169   6.212  0.4447 -0.2356  0.2977
    1DIPC   GL2 5968  29.123  15.522   6.104  0.0731  0.0875  0.1575
    1DIPC   C1A 5969  29.139  15.077   5.767  0.0442  0.0607 -0.1528
    1DIPC   D2A 5970  29.329  14.841   5.301  0.2516 -0.1399  0.2545
    1DIPC   D3A 5971  29.323  14.995   4.837 -0.0977 -0.0418  0.1460
    1DIPC   C4A 5972  29.432  15.509   4.736  0.0732  0.2057  0.0218
    1DIPC   C1B 5973  28.700  15.207   6.001  0.3634 -0.0349 -0.0001
    1DIPC   D2B 5974  28.689  14.786   6.089  0.0065  0.0315  0.0054
    1DIPC   D3B 5975  28.240  14.579   6.174  0.0642 -0.2278 -0.3243
    1DIPC   C4B 5976  27.955  14.446   5.869  0.2690  0.1143  0.3632
    1DIPC   NC3 5977  24.995  22.248   7.278 -0.0292  0.0529 -0.2814
    1DIPC   PO4 5978  25.448  21.963   7.019  0.2836 -0.3212 -0.1340
    1DIPC   GL1 5979  25.460  21.880   6.590  0.0010  0.1987 -0.1300
    1DIPC   GL2 5980  25.148  21.982   6.433  0.1495  0.2521 -0.0053
    1DIPC   C1A 5981  25.592  22.012   6.157  0.1741 -0.1431  0.0077
    1DIPC   D2A 5982  25.992  21.857   5.839  0.1131 -0.0252  0.1502
    1DIPC   D3A 5983  26.331  22.164   5.877 -0.3152 -0.2257 -0.2428
    1DIPC   C4A 5984  26.528  22.326   5.448  0.1248 -0.1792  0.0003
    1DIPC   C1B 5985  24.932  22.267   6.076  0.0050  0.1138  0.2493
    1DIPC   D2B 5986  24.585  22.484   6.013 -0.0034 -0.0533  0.3704
    1DIPC   D3B 5987  24.557  22.084   5.745  0.0787  0.1157 -0.0806
    1DIPC   C4B 5988  24.340  22.136   5.507  0.0706  0.5182 -0.0914
    1DIPC   NC3 5989   1.371  28.687   6.500 -0.0620 -0.0585 -0.1498
    1DIPC   PO4 5990   1.483  29.036   6.479  0.0106  0.0678 -0.2394
    1DIPC   GL1 5991   1.564  29.259   6.047 -0.1958  0.2113 -0.1281
    1DIPC   GL2 5992   1.793  29.304   5.694 -0.2272 -0.0356 -0.2285
    1DIPC   C1A 5993   1.332  29.273   5.673 -0.1448 -0.1007  0.0168
    1DIPC   D2A 5994   0.991  29.467   5.601 -0.0912 -0.1146  0.4897
    1DIPC   D3A 5995   0.576  29.218   5.559 -0.1341 -0.0485 -0.0056
    1DIPC   C4A 5996   0.406  29.258   5.176  0.1965 -0.0223  0.0169
    1DIPC   C1B 5997   1.604  29.260   5.282  0.0417 -0.1441 -0.3655
    1DIPC   D2B 5998   1.348  29.103   4.950 -0.2057  0.0731 -0.0233
    1DIPC   D3B 5999   1.391  29.241   4.577  0.3877 -0.3648  0.2713
    1DIPC   C4B 6000   1.693  29.425   4.185 -0.2157 -0.1495  0.3084
    1DIPC   NC3 6001   1.129  18.727   6.422 -0.1608  0.0945 -0.2092
    1DIPC   PO4 6002   0.830  18.968   6.244  0.2951 -0.3667 -0.7117
    1DIPC   GL1 6003   0.563  19.051   5.876 -0.0481  0.1565  0.2867
    1DIPC   GL2 6004   0.502  19.367   5.729  0.1060 -0.1283  0.0962
    1DIPC   C1A 6005   0.679  18.886   5.457  0.3013 -0.3244  0.3142
    1DIPC   D2A 6006   1.040  19.137   5.346 -0.2738  0.1617  0.0630
    1DIPC   D3A 6007   1.081  19.059   4.862 -0.0538  0.1277 -0.3249
    1DIPC   C4A 6008   0.902  18.799   4.501 -0.0606  0.0436 -0.2121
    1DIPC   C1B 6009   0.554  19.499   5.378 -0.1053 -0.2695  0.0128
    1DIPC   D2B 6010   0.849  19.559   5.018  0.1648 -0.3570  0.5365
    1DIPC   D3B 6011   0.691  19.828   4.632 -0.0572  0.1051 -0.1701
    1DIPC   C4B 6012   1.027  20.037   4.390  0.0827  0.2378 -0.0634
    1DIPC   NC3 6013   4.980  18.517   6.129 -0.1539 -0.1668  0.2225
    1DIPC   PO4 6014   4.812  18.034   6.240  0.2145 -0.0921  0.0918
    1DIPC   GL1 6015   4.899  18.182   5.755 -0.1465 -0.0048 -0.0653
    1DIPC   GL2 6016   4.583  18.063   5.644 -0.2850  0.1047 -0.0750
    1DIPC   C1A 6017   5.237  18.253   5.457 -0.1908  0.2057 -0.1248
    1DIPC   D2A 6018   5.497  17.890   5.253  0.0852  0.1436  0.2030
    1DIPC   D3A 6019   5.172  17.757   5.023 -0.0360 -0.0399  0.0624
    1DIPC   C4A 6020   5.084  17.361   5.195  0.1452 -0.0686 -0.5099
    1DIPC   C1B 6021   4.204  17.924   5.307  0.1880  0.0018  0.0968
    1DIPC   D2B 6022   4.198  18.018   4.771  0.0300  0.2583  0.1180
    1DIPC   D3B 6023   4.221  17.618   4.913 -0.1058  0.1109 -0.1959
    1DIPC   C4B 6024   3.887  17.465   5.030 -0.1609 -0.2118 -0.0117
    1DIPC   NC3 6025  27.516  23.559   6.694  0.2486  0.0828 -0.2994
    1DIPC   PO4 6026  27.982  23.476   6.816  0.2970 -0.0957 -0.1508
    1DIPC   GL1 6027  27.983  23.582   6.388 -0.2930 -0.0878  0.0947
    1DIPC   GL2 6028  27.784  23.327   6.266 -0.2893 -0.2184 -0.0918
    1DIPC   C1A 6029  28.059  23.596   5.942  0.2218  0.2122  0.1552
    1DIPC   D2A 6030  28.048  23.586   5.461 -0.2255 -0.0356  0.0486
    1DIPC   D3A 6031  28.336  23.434   5.166 -0.1983 -0.0222  0.0911
    1DIPC   C4A 6032  28.350  23.424   4.808  0.0207  0.0873  0.0726
    1DIPC   C1B 6033  27.537  23.239   5.880  0.0644  0.2213 -0.0667
    1DIPC   D2B 6034  27.595  23.368   5.450  0.1299 -0.0375 -0.0033
    1DIPC   D3B 6035  27.623  22.940   5.138 -0.0884 -0.0523  0.0808
    1DIPC   C4B 6036  27.586  23.044   4.737 -0.1469 -0.1134 -0.1097
    1DIPC   NC3 6037  11.068  27.435   6.688  0.0120  0.3398 -0.2407
    1DIPC   PO4 6038  11.031  27.820   6.890  0.0900 -0.3586  0.0431
    1DIPC   GL1 6039  11.047  27.838   6.453  0.1061  0.0334  0.1418
    1DIPC   GL2 6040  10.957  28.118   6.513 -0.3226  0.2230 -0.0326
    1DIPC   C1A 6041  10.814  27.623   6.021  0.1654  0.0280 -0.0484
    1DIPC   D2A 6042  10.343  27.443   5.921 -0.0656  0.1220 -0.0371
    1DIPC   D3A 6043  10.146  27.352   5.498  0.1294  0.4842 -0.0910
    1DIPC   C4A 6044  10.145  26.976   5.303  0.0736  0.0892  0.0354
    1DIPC   C1B 6045  10.810  28.152   6.093  0.0123  0.1565 -0.0201
    1DIPC   D2B 6046  10.869  27.990   5.646  0.1482 -0.4188 -0.3186
    1DIPC   D3B 6047  10.932  28.115   5.170 -0.1757 -0.1560 -0.0686
    1DIPC   C4B 6048  11.318  28.091   4.810  0.3158 -0.0767  0.1728
    1DIPC   NC3 6049   1.841   6.053   6.556  0.1191  0.1631  0.2023
    1DIPC   PO4 6050   2.148   5.719   6.504  0.1146  0.3112  0.0917
    1DIPC   GL1 6051   2.307   5.814   6.125  0.2579 -0.2067  0.2546
    1DIPC   GL2 6052   2.359   5.537   6.016  0.0076  0.2388 -0.0162
    1DIPC   C1A 6053   2.638   6.111   5.937 -0.0450  0.0589  0.2423
    1DIPC   D2A 6054   2.930   6.014   5.591 -0.0715 -0.0437 -0.3239
    1DIPC   D3A 6055   2.782   6.384   5.409 -0.2005  0.1238  0.2166
    1DIPC   C4A 6056   2.428   6.517   5.158  0.1126  0.3843  0.1813
    1DIPC   C1B 6057   2.010   5.629   5.712 -0.0566  0.0227 -0.0455
    1DIPC   D2B 6058   1.655   5.929   5.562 -0.0798  0.0819 -0.0243
    1DIPC   D3B 6059   1.935   5.753   5.209  0.1308 -0.1542  0.1344
    1DIPC   C4B 6060   2.238   6.059   5.061  0.1706  0.3045  0.2799
    1DIPC   NC3 6061   2.028  17.734   7.132 -0.0662 -0.0696 -0.4166
    1DIPC   PO4 6062   1.972  17.696   6.702 -0.2533 -0.1984  0.0642
    1DIPC   GL1 6063   1.938  17.442   6.335  0.1483  0.0915  0.0644
    1DIPC   GL2 6064   2.252  17.377   6.143  0.1246  0.1222 -0.1363
    1DIPC   C1A 6065   1.712  17.366   5.902 -0.1778  0.1327 -0.2166
    1DIPC   D2A 6066   1.678  17.477   5.538 -0.3697  0.2592  0.0735
    1DIPC   D3A 6067   1.566  17.151   5.366  0.1588 -0.1697 -0.2214
    1DIPC   C4A 6068   1.278  16.870   5.303  0.1544  0.0933 -0.1278
    1DIPC   C1B 6069   2.124  17.080   5.985  0.0673  0.0565  0.2478
    1DIPC   D2B 6070   1.942  16.896   5.595  0.2919 -0.1570  0.1674
    1DIPC   D3B 6071   2.019  16.793   5.101  0.0527 -0.3573 -0.0319
    1DIPC   C4B 6072   2.384  16.609   5.073  0.2149 -0.0731  0.1943
    1DIPC   NC3 6073  27.538   0.750   6.645  0.1347 -0.2149 -0.1539
    1DIPC   PO4 6074  27.164   0.721   6.750 -0.1895 -0.2253  0.0862
    1DIPC   GL1 6075  27.010   0.722   6.433  0.1030  0.0758 -0.0606
    1DIPC   GL2 6076  26.664   0.739   6.479 -0.4412 -0.1476  0.0635
    1DIPC   C1A 6077  26.968   0.685   6.059  0.2684  0.1015 -0.4150
    1DIPC   D2A 6078  26.754   0.709   5.653 -0.1176 -0.0501 -0.5296
    1DIPC   D3A 6079  26.915   0.953   5.334 -0.1321 -0.3274  0.0133
    1DIPC   C4A 6080  27.223   1.066   5.126  0.0802  0.2896  0.2386
    1DIPC   C1B 6081  26.624   0.334   6.119  0.2220 -0.3907 -0.1458
    1DIPC   D2B 6082  26.675  29.768   5.996  0.1611 -0.2223  0.1050
    1DIPC   D3B 6083  26.379  29.621   6.287 -0.0560  0.0346 -0.0688
    1DIPC   C4B 6084  26.017  29.566   6.160  0.2582  0.2738 -0.0900
    1DIPC   NC3 6085   3.001  26.229   5.556 -0.0064 -0.2002  0.0426
    1DIPC   PO4 6086   3.308  26.080   5.332  0.0055 -0.4139 -0.0163
    1DIPC   GL1 6087   3.200  26.149   4.909  0.0233  0.0473 -0.0544
    1DIPC   GL2 6088   2.955  25.982   4.649 -0.4297 -0.1008 -0.1716
    1DIPC   C1A 6089   3.403  26.119   4.542 -0.1503 -0.1864  0.0514
    1DIPC   D2A 6090   3.511  25.848   4.196  0.1516  0.2238  0.0434
    1DIPC   D3A 6091   3.193  25.869   3.935 -0.4713  0.1869  0.1095
    1DIPC   C4A 6092   3.147  26.286   3.713  0.1042  0.0461  0.1817
    1DIPC   C1B 6093   3.188  25.626   4.575 -0.0649 -0.0034  0.0309
    1DIPC   D2B 6094   3.501  25.365   4.257  0.2352 -0.1372  0.2354
    1DIPC   D3B 6095   3.206  25.351   3.913 -0.1249  0.0971  0.2370
    1DIPC   C4B 6096   2.800  25.142   4.011 -0.2259  0.0845  0.1898
    1DIPC   NC3 6097  13.559  27.866   6.683  0.0113  0.0017  0.2008
    1DIPC   PO4 6098  13.703  27.545   6.407  0.1295  0.0301  0.0676
    1DIPC   GL1 6099  13.793  27.683   6.095  0.2403 -0.0273  0.1592
    1DIPC   GL2 6100  14.064  27.513   5.984  0.0051  0.1608 -0.1665
    1DIPC   C1A 6101  13.579  28.040   5.876  0.2925 -0.1067  0.0082
    1DIPC   D2A 6102  13.655  28.245   5.597 -0.0942  0.5595 -0.1510
    1DIPC   D3A 6103  14.132  28.462   5.421  0.1113 -0.1418 -0.1154
    1DIPC   C4A 6104  14.086  28.870   5.269  0.0922 -0.5843  0.2740
    1DIPC   C1B 6105  14.250  27.562   5.584 -0.0208 -0.0250  0.0440
    1DIPC   D2B 6106  14.531  27.280   5.476 -0.1032  0.4720 -0.1924
    1DIPC   D3B 6107  14.911  27.098   5.657  0.1114 -0.0971 -0.0527
    1DIPC   C4B 6108  15.128  26.984   5.341 -0.1237 -0.0465  0.0184
    1DIPC   NC3 6109  11.722  10.500   6.604  0.0154 -0.0572 -0.3408
    1DIPC   PO4 6110  11.558  10.169   6.599 -0.2499 -0.1746 -0.1708
    1DIPC   GL1 6111  11.443  10.262   6.213 -0.2094 -0.2169 -0.0062
    1DIPC   GL2 6112  11.353  10.522   6.245 -0.0333 -0.5050 -0.0932
    1DIPC   C1A 6113  11.484  10.226   5.799 -0.1579 -0.0025  0.1089
    1DIPC   D2A 6114  11.620  10.198   5.356 -0.0958 -0.1637  0.0984
    1DIPC   D3A 6115  11.959  10.581   5.308  0.0754  0.0050  0.1570
    1DIPC   C4A 6116  11.822  10.856   4.921  0.1839  0.0628  0.2753
    1DIPC   C1B 6117  11.206  10.779   6.011  0.2508  0.2496 -0.2075
    1DIPC   D2B 6118  10.967  10.809   5.642  0.0202 -0.1765  0.3418
    1DIPC   D3B 6119  11.084  10.953   5.246  0.0949  0.0978 -0.0930
    1DIPC   C4B 6120  11.113  10.950   4.717  0.1615 -0.0366  0.4614
    1DIPC   NC3 6121  25.028   1.929   7.292  0.1312 -0.1958  0.0908
    1DIPC   PO4 6122  24.789   1.737   6.988  0.0433  0.0510  0.1412
    1DIPC   GL1 6123  24.425   1.760   6.660  0.0971  0.1627 -0.3178
    1DIPC   GL2 6124  24.086   1.661   6.731  0.0641  0.0847  0.0750
    1DIPC   C1A 6125  24.261   1.898   6.298  0.0864 -0.0082  0.4455
    1DIPC   D2A 6126  24.012   1.661   6.004 -0.1410  0.0072  0.0138
    1DIPC   D3A 6127  24.004   1.720   5.562 -0.1598 -0.2214  0.0033
    1DIPC   C4A 6128  24.140   1.324   5.262  0.0832 -0.0380 -0.1706
    1DIPC   C1B 6129  23.846   1.943   6.520  0.1621  0.0748  0.1292
    1DIPC   D2B 6130  23.979   2.279   6.373  0.2244  0.0601 -0.0045
    1DIPC   D3B 6131  23.994   2.202   5.996 -0.0278  0.0129 -0.1914
    1DIPC   C4B 6132  24.485   1.952   5.818  0.0640  0.1562  0.1602
    1DIPC   NC3 6133  27.694   6.960   7.255 -0.0162  0.1565 -0.1340
    1DIPC   PO4 6134  27.597   7.203   6.931  0.0524 -0.1333 -0.1559
    1DIPC   GL1 6135  27.863   7.317   6.618 -0.0694 -0.1730 -0.0984
    1DIPC   GL2 6136  27.839   7.704   6.463  0.0583  0.2749  0.1338
    1DIPC   C1A 6137  28.327   7.137   6.413 -0.0596 -0.0523  0.0849
    1DIPC   D2A 6138  28.796   7.301   6.418 -0.0529  0.2181  0.2141
    1DIPC   D3A 6139  28.830   7.121   6.110 -0.2601  0.1460  0.0784
    1DIPC   C4A 6140  28.471   7.026   5.891  0.2897 -0.0279 -0.1691
    1DIPC   C1B 6141  27.955   7.447   6.126  0.2216  0.1463  0.1357
    1DIPC   D2B 6142  28.058   7.301   5.764  0.2073  0.3067  0.0305
    1DIPC   D3B 6143  28.321   7.235   5.415  0.0338  0.0176  0.0019
    1DIPC   C4B 6144  28.224   6.880   5.162 -0.2273 -0.0697  0.3228
    1DIPC   NC3 6145  25.307  16.296   7.182 -0.3560  0.0404  0.2760
    1DIPC   PO4 6146  25.014  16.220   6.837 -0.0312 -0.2732 -0.1628
    1DIPC   GL1 6147  25.179  16.057   6.459 -0.3083  0.1124  0.1487
    1DIPC   GL2 6148  24.986  16.037   6.290  0.0745  0.2991  0.0654
    1DIPC   C1A 6149  25.427  16.000   6.023  0.1004 -0.0877 -0.3059
    1DIPC   D2A 6150  25.710  16.062   5.765  0.1881 -0.0446 -0.1285
    1DIPC   D3A 6151  25.647  15.928   5.323 -0.1365 -0.1042 -0.1860
    1DIPC   C4A 6152  25.792  16.304   5.075  0.1682 -0.0845  0.3172
    1DIPC   C1B 6153  24.897  16.143   5.956 -0.1620  0.1087 -0.3764
    1DIPC   D2B 6154  24.926  16.283   5.612 -0.1943 -0.2150 -0.2272
    1DIPC   D3B 6155  24.702  16.644   5.732  0.1591 -0.1627  0.1276
    1DIPC   C4B 6156  24.778  16.689   6.161 -0.1288  0.0999 -0.4539
    1DIPC   NC3 6157  28.655  18.989   6.146  0.1903 -0.2267  0.0602
    1DIPC   PO4 6158  28.984  18.682   6.167  0.0050  0.3293  0.0712
    1DIPC   GL1 6159  29.287  18.489   5.833 -0.0151 -0.0130 -0.3568
    1DIPC   GL2 6160  29.560  18.709   5.709 -0.1619 -0.0101 -0.2723
    1DIPC   C1A 6161  29.360  18.321   5.451  0.2016  0.2068 -0.0525
    1DIPC   D2A 6162  29.164  18.461   5.100 -0.1725 -0.1511 -0.1863
    1DIPC   D3A 6163  29.137  18.337   4.643 -0.1667  0.0401 -0.0783
    1DIPC   C4A 6164  29.092  17.843   4.451 -0.1901  0.2635 -0.1037
    1DIPC   C1B 6165  29.674  18.685   5.293  0.0483  0.1038  0.2992
    1DIPC   D2B 6166   0.078  18.849   4.867 -0.1832 -0.1416 -0.1320
    1DIPC   D3B 6167  29.532  18.704   4.701 -0.1108 -0.0589  0.2460
    1DIPC   C4B 6168  29.364  18.520   4.266 -0.0843 -0.1421  0.1376
    1DIPC   NC3 6169   3.556   0.672   6.855  0.2044  0.1554  0.3480
    1DIPC   PO4 6170   3.287   0.883   6.483 -0.3920 -0.0375 -0.3112
    1DIPC   GL1 6171   3.366   1.187   6.160 -0.0886  0.1857  0.1122
    1DIPC   GL2 6172   3.105   1.351   5.937  0.0799  0.1278 -0.5051
    1DIPC   C1A 6173   3.572   1.231   5.852  0.1103  0.0001  0.3035
    1DIPC   D2A 6174   3.810   0.894   5.616  0.1358 -0.2725 -0.0954
    1DIPC   D3A 6175   4.005   0.965   5.207 -0.1000  0.1426 -0.0331
    1DIPC   C4A 6176   4.321   0.714   4.981 -0.1443  0.0623 -0.0756
    1DIPC   C1B 6177   2.830   1.639   5.776 -0.0328  0.2034  0.0934
    1DIPC   D2B 6178   2.835   2.015   5.570 -0.3082 -0.1788  0.5483
    1DIPC   D3B 6179   2.680   2.304   5.231 -0.3129 -0.1242 -0.1600
    1DIPC   C4B 6180   2.845   2.674   5.036 -0.2253  0.0004 -0.0237
    1DIPC   NC3 6181  19.838  23.618   5.924  0.0453 -0.0403 -0.2349
    1DIPC   PO4 6182  20.232  23.418   5.879 -0.1953  0.0154 -0.0486
    1DIPC   GL1 6183  19.928  23.306   5.613  0.0977 -0.0061 -0.0395
    1DIPC   GL2 6184  19.809  23.060   5.552  0.1572  0.1935 -0.1035
    1DIPC   C1A 6185  19.522  23.408   5.343 -0.0208 -0.2914  0.0716
    1DIPC   D2A 6186  19.519  23.195   4.872  0.0600 -0.1426 -0.2880
    1DIPC   D3A 6187  19.756  23.561   4.769  0.0074 -0.3451 -0.1653
    1DIPC   C4A 6188  20.095  23.573   5.151  0.0651 -0.0251  0.0330
    1DIPC   C1B 6189  19.506  22.858   5.316  0.2120  0.0813 -0.2056
    1DIPC   D2B 6190  19.174  22.886   5.049 -0.1566  0.1549  0.0014
    1DIPC   D3B 6191  19.109  23.313   5.079 -0.1001  0.3868 -0.1200
    1DIPC   C4B 6192  19.143  23.622   4.719 -0.0919 -0.1463 -0.0983
    1DIPC   NC3 6193  15.906   5.472   7.911  0.1173  0.1777  0.2846
    1DIPC   PO4 6194  16.304   5.510   8.153  0.3347  0.0098  0.0079
    1DIPC   GL1 6195  16.336   5.278   7.678  0.0918 -0.0438  0.2788
    1DIPC   GL2 6196  16.577   5.284   7.523  0.0870 -0.0515 -0.1480
    1DIPC   C1A 6197  16.211   5.584   7.339 -0.0695 -0.0352 -0.2222
    1DIPC   D2A 6198  15.974   5.634   7.036  0.3917  0.1121  0.0222
    1DIPC   D3A 6199  15.878   5.325   6.653 -0.0728 -0.0438 -0.1581
    1DIPC   C4A 6200  16.031   5.296   6.225 -0.2552  0.1555 -0.0464
    1DIPC   C1B 6201  16.720   5.327   7.084 -0.1184  0.0215  0.1036
    1DIPC   D2B 6202  16.948   5.325   6.785  0.4144 -0.0648  0.0023
    1DIPC   D3B 6203  17.052   4.969   6.974  0.1886  0.1676 -0.1672
    1DIPC   C4B 6204  17.284   4.763   6.962  0.0135  0.0282  0.1630
    1DIPC   NC3 6205  16.838  22.511   6.131  0.1533 -0.0350 -0.0013
    1DIPC   PO4 6206  16.895  22.591   5.668  0.1772 -0.3625  0.0867
    1DIPC   GL1 6207  16.905  22.757   5.163  0.1070  0.1605  0.1126
    1DIPC   GL2 6208  16.966  22.619   4.822 -0.1473  0.2174  0.2026
    1DIPC   C1A 6209  16.934  23.125   4.709 -0.0217  0.0105 -0.0872
    1DIPC   D2A 6210  16.977  23.449   4.348 -0.3294 -0.0123  0.5678
    1DIPC   D3A 6211  16.856  23.765   4.104 -0.0793  0.1480 -0.1537
    1DIPC   C4A 6212  16.852  23.552   3.800  0.0124 -0.1441  0.1134
    1DIPC   C1B 6213  16.933  22.729   4.388  0.1880 -0.1096  0.0900
    1DIPC   D2B 6214  17.095  22.779   4.118 -0.0936  0.1359 -0.1201
    1DIPC   D3B 6215  17.050  23.099   3.937 -0.0147  0.1969 -0.2027
    1DIPC   C4B 6216  17.065  23.105   3.535 -0.0064 -0.1037  0.0175
    1DIPC   NC3 6217  13.311  23.923   5.908 -0.1250 -0.1533 -0.0409
    1DIPC   PO4 6218  13.507  24.032   5.483 -0.1591  0.0474  0.2151
    1DIPC   GL1 6219  13.647  24.408   5.245 -0.3043 -0.1323 -0.0374
    1DIPC   GL2 6220  13.551  24.264   4.968 -0.1658  0.0285 -0.0000
    1DIPC   C1A 6221  13.413  24.747   5.072 -0.1728 -0.2076 -0.0839
    1DIPC   D2A 6222  13.134  24.831   4.787  0.2266 -0.2910 -0.2509
    1DIPC   D3A 6223  13.095  25.157   4.368  0.2117  0.4493  0.1513
    1DIPC   C4A 6224  13.599  25.319   4.172  0.0953  0.0052 -0.0733
    1DIPC   C1B 6225  13.578  24.226   4.473  0.2064 -0.0118  0.1923
    1DIPC   D2B 6226  13.339  24.179   4.129 -0.3896  0.0511  0.2957
    1DIPC   D3B 6227  13.499  24.526   3.850  0.0037  0.0867 -0.0475
    1DIPC   C4B 6228  13.294  24.943   3.906 -0.1697 -0.0477  0.1642
    1DIPC   NC3 6229  11.962  21.002   6.037  0.1157  0.0470  0.3110
    1DIPC   PO4 6230  11.800  21.234   5.629 -0.2068 -0.0034  0.1440
    1DIPC   GL1 6231  11.852  21.331   5.156 -0.0338  0.0309  0.2376
    1DIPC   GL2 6232  12.193  21.399   5.121 -0.1654  0.1161 -0.1090
    1DIPC   C1A 6233  11.680  21.207   4.667 -0.1695 -0.1896 -0.4569
    1DIPC   D2A 6234  11.932  21.160   4.377 -0.1123 -0.1589  0.0569
    1DIPC   D3A 6235  11.874  20.747   4.157 -0.1720  0.0067 -0.5393
    1DIPC   C4A 6236  11.850  20.723   3.711 -0.1307  0.0373 -0.0736
    1DIPC   C1B 6237  12.264  21.123   4.744 -0.1613  0.1503 -0.1200
    1DIPC   D2B 6238  12.327  20.872   4.435 -0.0703 -0.1758  0.1214
    1DIPC   D3B 6239  12.759  20.870   4.286 -0.2087 -0.1001  0.5640
    1DIPC   C4B 6240  12.862  20.434   4.129 -0.2093  0.2792  0.0715
    1DIPC   NC3 6241  17.189  25.304   6.466  0.0613  0.0124  0.0383
    1DIPC   PO4 6242  17.348  25.425   6.007  0.2484  0.0358  0.0381
    1DIPC   GL1 6243  17.446  25.450   5.559  0.0067  0.0928  0.0016
    1DIPC   GL2 6244  17.488  25.246   5.327  0.0874 -0.2599 -0.1216
    1DIPC   C1A 6245  17.462  25.727   5.227  0.0198  0.2473 -0.0364
    1DIPC   D2A 6246  17.334  25.992   4.934  0.2330  0.0701  0.0830
    1DIPC   D3A 6247  17.456  26.031   4.396  0.0244 -0.0296 -0.2125
    1DIPC   C4A 6248  17.407  25.744   4.136 -0.1159  0.0289  0.1068
    1DIPC   C1B 6249  17.582  25.345   4.895 -0.0392  0.2863  0.1486
    1DIPC   D2B 6250  17.585  25.626   4.702  0.2622 -0.0804  0.0206
    1DIPC   D3B 6251  17.049  25.788   4.635  0.0369  0.0129  0.2413
    1DIPC   C4B 6252  16.974  25.983   4.267  0.0578 -0.0958  0.2954
    1DIPC   NC3 6253   7.916  24.109   5.445  0.0101 -0.0513  0.0085
    1DIPC   PO4 6254   8.167  23.703   5.343 -0.0974 -0.3323 -0.3025
    1DIPC   GL1 6255   7.880  23.461   5.080 -0.0065 -0.0777 -0.0232
    1DIPC   GL2 6256   8.118  23.511   4.769 -0.0339  0.2435 -0.2158
    1DIPC   C1A 6257   7.649  23.426   4.604 -0.0442 -0.3755  0.0256
    1DIPC   D2A 6258   7.255  23.668   4.540 -0.4091  0.2324 -0.0617
    1DIPC   D3A 6259   6.828  23.672   4.463 -0.1616  0.0062  0.1339
    1DIPC   C4A 6260   6.926  23.832   4.030 -0.0085  0.0630 -0.3210
    1DIPC   C1B 6261   8.458  23.513   4.480 -0.1501  0.2815 -0.3837
    1DIPC   D2B 6262   8.457  23.627   4.100  0.1430 -0.0002  0.2496
    1DIPC   D3B 6263   8.265  23.532   3.770  0.0343  0.1450  0.1298
    1DIPC   C4B 6264   8.598  23.642   3.509 -0.1307 -0.0813 -0.1404
    1DIPC   NC3 6265  26.071  18.467   6.209 -0.3743 -0.0039 -0.0439
    1DIPC   PO4 6266  25.674  18.253   6.239  0.3084 -0.1101  0.0461
    1DIPC   GL1 6267  25.916  18.107   5.842 -0.0719  0.0489 -0.4750
    1DIPC   GL2 6268  25.772  18.132   5.680 -0.0552  0.0274 -0.0751
    1DIPC   C1A 6269  26.314  18.255   5.610 -0.2091 -0.1661 -0.1140
    1DIPC   D2A 6270  26.691  18.479   5.463 -0.0123 -0.0291 -0.1949
    1DIPC   D3A 6271  26.727  18.617   5.048  0.0299  0.0358  0.0612
    1DIPC   C4A 6272  26.996  18.549   4.660 -0.2998 -0.0708  0.1310
    1DIPC   C1B 6273  25.945  18.240   5.316 -0.0933 -0.0330 -0.3178
    1DIPC   D2B 6274  26.245  18.314   5.058 -0.1032 -0.0976 -0.0893
    1DIPC   D3B 6275  25.840  18.626   4.978  0.2017 -0.0670 -0.1638
    1DIPC   C4B 6276  25.571  18.641   4.677  0.0944 -0.0080  0.1424
    1DIPC   NC3 6277  28.874  24.509   6.776 -0.2644  0.0942  0.6730
    1DIPC   PO4 6278  28.475  24.589   6.559  0.0418 -0.2234 -0.0380
    1DIPC   GL1 6279  28.268  24.416   6.212  0.0627  0.0869  0.2830
    1DIPC   GL2 6280  28.216  24.158   6.300 -0.1484 -0.0909 -0.0195
    1DIPC   C1A 6281  28.440  24.379   5.779 -0.1579  0.0378 -0.1124
    1DIPC   D2A 6282  28.567  24.412   5.280  0.0655 -0.0029 -0.3067
    1DIPC   D3A 6283  28.868  24.423   4.947  0.0912  0.0916  0.0743
    1DIPC   C4A 6284  28.779  24.598   4.603  0.1886 -0.1265  0.2906
    1DIPC   C1B 6285  27.956  24.138   5.924  0.4724  0.1198 -0.2178
    1DIPC   D2B 6286  27.867  24.264   5.502  0.1731 -0.0103  0.0286
    1DIPC   D3B 6287  27.523  23.986   5.349  0.4680 -0.3835  0.1789
    1DIPC   C4B 6288  27.225  24.216   5.064  0.0531 -0.0460  0.0090
    1DIPC   NC3 6289  11.213   7.542   6.698 -0.2138  0.2397 -0.1208
    1DIPC   PO4 6290  10.758   7.409   6.790  0.1656 -0.2123 -0.2585
    1DIPC   GL1 6291  10.768   7.479   6.383 -0.0127  0.0186 -0.0660
    1DIPC   GL2 6292  11.021   7.362   6.320  0.1703  0.2757 -0.2485
    1DIPC   C1A 6293  10.594   7.632   5.828  0.2534  0.3689  0.0946
    1DIPC   D2A 6294  10.722   7.612   5.370  0.2066 -0.3975  0.0455
    1DIPC   D3A 6295  10.362   7.471   5.258  0.1534 -0.0058  0.2132
    1DIPC   C4A 6296  10.037   7.639   4.993  0.1041 -0.1298 -0.0526
    1DIPC   C1B 6297  10.946   7.107   6.041 -0.0289  0.5239  0.0901
    1DIPC   D2B 6298  11.193   6.812   5.766  0.1957  0.0007  0.0839
    1DIPC   D3B 6299  11.630   6.713   5.670  0.0210  0.2849  0.1687
    1DIPC   C4B 6300  11.798   6.734   5.282  0.2375  0.0037 -0.1378
    1DIPC   NC3 6301  15.425   2.104   8.228  0.2487 -0.1245 -0.3102
    1DIPC   PO4 6302  15.730   1.785   8.061 -0.1229 -0.2417  0.2729
    1DIPC   GL1 6303  15.740   1.974   7.628  0.1418  0.1093  0.0808
    1DIPC   GL2 6304  15.582   2.213   7.603 -0.3074  0.2441  0.1104
    1DIPC   C1A 6305  15.757   2.160   7.146 -0.2505 -0.0436 -0.1978
    1DIPC   D2A 6306  15.769   2.322   6.737 -0.0606  0.1013 -0.2490
    1DIPC   D3A 6307  15.777   2.684   7.019  0.2730 -0.0613  0.0229
    1DIPC   C4A 6308  15.794   2.765   7.362  0.2682  0.1373  0.0998
    1DIPC   C1B 6309  15.325   2.396   7.289  0.3791 -0.2009  0.3978
    1DIPC   D2B 6310  15.278   2.562   6.762  0.0949  0.0182  0.0363
    1DIPC   D3B 6311  15.383   2.367   6.327  0.1860  0.0733 -0.0992
    1DIPC   C4B 6312  15.752   2.270   6.261  0.2062  0.3457  0.1484
    1DIPC   NC3 6313  26.082  27.479   6.464 -0.1132  0.1095 -0.0466
    1DIPC   PO4 6314  25.761  27.198   6.244 -0.2701  0.0260  0.0969
    1DIPC   GL1 6315  25.829  27.334   5.879  0.0615 -0.1761 -0.0725
    1DIPC   GL2 6316  25.876  27.021   5.765  0.0955 -0.0010 -0.0853
    1DIPC   C1A 6317  25.862  27.658   5.451 -0.0097 -0.0076 -0.2889
    1DIPC   D2A 6318  26.230  27.602   5.162 -0.1046 -0.1915  0.0172
    1DIPC   D3A 6319  25.893  27.796   4.931  0.0657 -0.2357 -0.1431
    1DIPC   C4A 6320  26.134  28.054   4.637  0.1070  0.2630  0.0724
    1DIPC   C1B 6321  25.848  27.162   5.391  0.1822  0.0839 -0.0716
    1DIPC   D2B 6322  25.521  27.420   5.043 -0.1890  0.0526  0.1025
    1DIPC   D3B 6323  25.257  27.122   4.798 -0.1260 -0.0985 -0.0062
    1DIPC   C4B 6324  25.346  26.967   4.334 -0.3379  0.0553 -0.0462
    1DIPC   NC3 6325  16.020  19.488   5.710 -0.0169  0.0788 -0.2337
    1DIPC   PO4 6326  16.467  19.681   5.716 -0.1864  0.0274  0.1679
    1DIPC   GL1 6327  16.654  19.746   5.369 -0.0360  0.2150  0.0732
    1DIPC   GL2 6328  16.419  19.831   5.140 -0.1992 -0.3694 -0.2254
    1DIPC   C1A 6329  16.916  19.627   5.049 -0.0957  0.1369 -0.0364
    1DIPC   D2A 6330  17.033  19.521   4.668  0.2202 -0.2072 -0.1255
    1DIPC   D3A 6331  16.628  19.601   4.659  0.1483 -0.0871 -0.1596
    1DIPC   C4A 6332  16.474  19.667   4.242 -0.2573  0.0693  0.0191
    1DIPC   C1B 6333  16.008  19.632   4.808 -0.1720 -0.1470 -0.0959
    1DIPC   D2B 6334  15.981  19.594   4.303 -0.0237  0.0393  0.3095
    1DIPC   D3B 6335  16.134  19.959   3.995 -0.1392 -0.0354  0.1252
    1DIPC   C4B 6336  15.922  20.339   3.760  0.2023  0.1923 -0.2554
    1DIPC   NC3 6337   5.302  12.059   6.458 -0.1658  0.2142  0.1140
    1DIPC   PO4 6338   5.245  12.212   6.032 -0.4221 -0.1832 -0.3684
    1DIPC   GL1 6339   5.268  12.305   5.572  0.0212  0.2385  0.0691
    1DIPC   GL2 6340   5.079  12.093   5.336 -0.0808 -0.2428  0.1318
    1DIPC   C1A 6341   5.460  12.237   5.141 -0.0668  0.3436  0.1868
    1DIPC   D2A 6342   5.470  12.483   4.706 -0.2185  0.0962  0.1088
    1DIPC   D3A 6343   5.857  12.506   4.449  0.2657 -0.1054 -0.0019
    1DIPC   C4A 6344   6.248  12.105   4.434  0.1976  0.0083  0.2089
    1DIPC   C1B 6345   5.008  12.174   4.960 -0.1382  0.0642  0.1640
    1DIPC   D2B 6346   4.916  12.274   4.411 -0.2856  0.0244 -0.0030
    1DIPC   D3B 6347   5.097  11.943   4.105  0.1173  0.0383 -0.0035
    1DIPC   C4B 6348   5.156  11.724   3.739  0.0074 -0.1679 -0.4878
    1DIPC   NC3 6349   0.027  10.383   5.977 -0.2304  0.3020  0.0775
    1DIPC   PO4 6350   0.333  10.702   5.940  0.1419  0.0111  0.1760
    1DIPC   GL1 6351   0.495  10.878   5.640 -0.1290 -0.0550 -0.0753
    1DIPC   GL2 6352   0.534  10.643   5.448 -0.0981 -0.0730  0.0743
    1DIPC   C1A 6353   0.733  11.105   5.348  0.2186 -0.2074  0.0596
    1DIPC   D2A 6354   1.099  11.432   5.250  0.3560 -0.0588  0.2169
    1DIPC   D3A 6355   1.227  11.487   4.812  0.0826 -0.3880  0.3366
    1DIPC   C4A 6356   0.824  11.679   4.603  0.4094  0.0551 -0.0933
    1DIPC   C1B 6357   0.533  10.726   5.048 -0.1912  0.0529 -0.0200
    1DIPC   D2B 6358   0.251  10.704   4.648 -0.0435 -0.0846  0.2568
    1DIPC   D3B 6359   0.683  10.797   4.542  0.0550  0.1798  0.0724
    1DIPC   C4B 6360   1.012  10.557   4.774  0.0262  0.2043 -0.0061
    1DIPC   NC3 6361   3.908  29.027   6.716  0.2416  0.0130 -0.1428
    1DIPC   PO4 6362   3.730  28.749   6.455 -0.0360 -0.0804 -0.2644
    1DIPC   GL1 6363   3.471  28.845   6.054 -0.1521  0.2407 -0.2759
    1DIPC   GL2 6364   3.622  28.907   5.665 -0.0234 -0.1001  0.0308
    1DIPC   C1A 6365   3.181  28.589   5.681 -0.1908 -0.0911 -0.1925
    1DIPC   D2A 6366   3.354  28.736   5.296  0.0093  0.5006  0.1335
    1DIPC   D3A 6367   2.999  29.005   5.136 -0.2429  0.0752  0.2475
    1DIPC   C4A 6368   2.669  29.203   5.315 -0.1039  0.0164 -0.1890
    1DIPC   C1B 6369   3.641  29.121   5.268  0.0188  0.2886 -0.0160
    1DIPC   D2B 6370   3.642  29.390   4.879 -0.3273 -0.2325 -0.0343
    1DIPC   D3B 6371   3.923  29.327   4.480 -0.2465  0.0987 -0.0718
    1DIPC   C4B 6372   3.685  28.988   4.197 -0.1168  0.0681 -0.1137
    1DIPC   NC3 6373  15.520  12.597   7.568 -0.1124  0.3209 -0.0660
    1DIPC   PO4 6374  15.921  12.388   7.363  0.2489 -0.1435 -0.5130
    1DIPC   GL1 6375  15.834  12.124   7.102 -0.0418  0.0412  0.1627
    1DIPC   GL2 6376  15.610  11.951   6.975 -0.0141  0.0720 -0.1338
    1DIPC   C1A 6377  16.038  11.984   6.775  0.2126 -0.0993 -0.0233
    1DIPC   D2A 6378  16.081  11.997   6.362  0.0905 -0.1088  0.0421
    1DIPC   D3A 6379  16.042  12.054   5.995 -0.2681 -0.0237  0.2304
    1DIPC   C4A 6380  15.949  12.312   5.681 -0.0568  0.2921 -0.0295
    1DIPC   C1B 6381  15.539  12.274   6.665  0.0142  0.3607 -0.0358
    1DIPC   D2B 6382  15.657  12.736   6.664 -0.1387  0.1269 -0.0939
    1DIPC   D3B 6383  16.035  12.560   6.865 -0.1510  0.1132  0.1842
    1DIPC   C4B 6384  16.260  12.406   6.601  0.2552  0.4241 -0.0910
    1DIPC   NC3 6385  17.705   2.014   8.124 -0.2331 -0.3351  0.0038
    1DIPC   PO4 6386  17.351   2.136   8.039  0.0548 -0.5256  0.2728
    1DIPC   GL1 6387  17.416   2.199   7.614  0.2241  0.1645 -0.2415
    1DIPC   GL2 6388  17.160   1.928   7.485  0.0237  0.1141 -0.0736
    1DIPC   C1A 6389  17.532   2.048   7.220  0.1017  0.2249 -0.2094
    1DIPC   D2A 6390  17.293   2.048   6.851  0.0939 -0.0292 -0.0304
    1DIPC   D3A 6391  17.701   1.997   6.609  0.0286  0.1538 -0.0875
    1DIPC   C4A 6392  17.481   1.955   6.302  0.0260  0.1084 -0.0990
    1DIPC   C1B 6393  17.090   2.357   7.323  0.1354 -0.1363  0.0815
    1DIPC   D2B 6394  17.139   2.539   6.914 -0.3767 -0.2764  0.0098
    1DIPC   D3B 6395  17.192   2.358   6.442  0.0633 -0.0595 -0.2099
    1DIPC   C4B 6396  17.254   2.524   6.096  0.1635 -0.2115  0.0239
    1DIPC   NC3 6397   8.618   5.254   6.862  0.0302  0.0442 -0.0372
    1DIPC   PO4 6398   9.110   5.291   6.864  0.0051  0.0541  0.1659
    1DIPC   GL1 6399   8.946   5.037   6.489 -0.0098  0.0700 -0.0906
    1DIPC   GL2 6400   8.670   4.847   6.518 -0.1780 -0.2169  0.3979
    1DIPC   C1A 6401   9.033   5.102   6.088 -0.1288  0.1090 -0.1656
    1DIPC   D2A 6402   9.048   5.219   5.666 -0.1062  0.3895  0.1268
    1DIPC   D3A 6403   9.323   5.367   5.337 -0.1681  0.1872  0.0944
    1DIPC   C4A 6404   9.281   5.756   5.487 -0.2273  0.3378 -0.2347
    1DIPC   C1B 6405   8.655   4.762   6.044 -0.1148  0.0329 -0.0036
    1DIPC   D2B 6406   8.736   4.687   5.640  0.1829 -0.1162  0.1699
    1DIPC   D3B 6407   8.408   4.508   5.711 -0.0765  0.1466  0.3193
    1DIPC   C4B 6408   8.083   4.492   5.423  0.0084 -0.1696  0.1173
    1DIPC   NC3 6409  11.511   4.018   7.714  0.0750 -0.0660 -0.3114
    1DIPC   PO4 6410  11.862   3.961   7.455  0.1045 -0.2318 -0.1774
    1DIPC   GL1 6411  12.056   4.077   7.133 -0.1423 -0.0548  0.1153
    1DIPC   GL2 6412  11.984   4.244   6.952  0.2139  0.0124 -0.4434
    1DIPC   C1A 6413  12.433   4.160   6.998  0.0123  0.1984  0.0124
    1DIPC   D2A 6414  12.769   4.120   6.749 -0.2572 -0.0843  0.2480
    1DIPC   D3A 6415  12.519   4.386   6.327  0.2823  0.1734  0.2672
    1DIPC   C4A 6416  12.435   4.134   5.903  0.1811  0.0591 -0.0963
    1DIPC   C1B 6417  12.084   4.561   6.720  0.5339 -0.2353 -0.2283
    1DIPC   D2B 6418  11.931   4.717   6.329  0.2077 -0.0644  0.1058
    1DIPC   D3B 6419  12.111   4.515   5.975 -0.0990 -0.0750  0.1017
    1DIPC   C4B 6420  11.927   4.512   5.627 -0.4069 -0.2433 -0.0836
    1DIPC   NC3 6421   4.184  14.159   6.722 -0.2628 -0.3025  0.1430
    1DIPC   PO4 6422   4.609  14.086   6.414 -0.1769  0.1517 -0.4341
    1DIPC   GL1 6423   4.721  14.150   6.031  0.3146  0.1500  0.0449
    1DIPC   GL2 6424   4.698  14.412   5.925 -0.1484 -0.0284 -0.2178
    1DIPC   C1A 6425   4.995  14.060   5.724 -0.0524  0.1171 -0.0834
    1DIPC   D2A 6426   4.893  14.162   5.265 -0.1858  0.1808  0.0454
    1DIPC   D3A 6427   5.183  14.237   4.959 -0.0282  0.0816  0.2782
    1DIPC   C4A 6428   4.916  14.264   4.663 -0.1451  0.0175 -0.0219
    1DIPC   C1B 6429   4.741  14.508   5.488  0.0647  0.0965  0.0669
    1DIPC   D2B 6430   4.799  14.625   5.018 -0.0077  0.0902 -0.1859
    1DIPC   D3B 6431   4.336  14.707   4.936 -0.1574 -0.0164 -0.0789
    1DIPC   C4B 6432   4.053  14.460   4.913  0.7201  0.0823  0.0839
    1DIPC   NC3 6433   9.452  29.267   6.537  0.0962 -0.2252  0.1579
    1DIPC   PO4 6434   9.880  29.355   6.789  0.2529 -0.2410 -0.1225
    1DIPC   GL1 6435   9.792  29.614   6.417  0.2112 -0.1524 -0.3134
    1DIPC   GL2 6436   9.677  29.440   6.172 -0.1068  0.3984 -0.0178
    1DIPC   C1A 6437   9.781   0.061   5.966 -0.2020  0.2519 -0.1863
    1DIPC   D2A 6438   9.424   0.422   5.835 -0.0329 -0.0879 -0.0429
    1DIPC   D3A 6439   9.745   0.385   5.463  0.1177  0.1395 -0.0484
    1DIPC   C4A 6440   9.845   0.718   5.281  0.0314 -0.1103  0.1312
    1DIPC   C1B 6441   9.368  29.258   5.831  0.1639  0.2471 -0.3125
    1DIPC   D2B 6442   8.993  29.087   5.620 -0.1597  0.0017  0.0730
    1DIPC   D3B 6443   8.709  28.742   5.683 -0.1935  0.1298 -0.0784
    1DIPC   C4B 6444   8.366  28.925   5.907  0.3504  0.2541 -0.1898
    1DIPC   NC3 6445  29.113  27.410   5.845 -0.0931 -0.1524 -0.0481
    1DIPC   PO4 6446  29.333  27.783   5.946 -0.0692  0.0411  0.1984
    1DIPC   GL1 6447  29.435  28.037   5.589  0.1544 -0.0855  0.1688
    1DIPC   GL2 6448  29.767  27.918   5.566 -0.0607  0.2065  0.1941
    1DIPC   C1A 6449  29.572  28.326   5.317 -0.3331  0.1131 -0.1617
    1DIPC   D2A 6450  29.482  28.324   5.016  0.2066  0.2248 -0.1015
    1DIPC   D3A 6451  29.229  27.998   5.090 -0.1237  0.0931 -0.0733
    1DIPC   C4A 6452  29.281  27.550   5.220 -0.2426 -0.0290 -0.1079
    1DIPC   C1B 6453  29.753  27.827   5.247  0.2879  0.2911  0.1121
    1DIPC   D2B 6454   0.035  28.031   4.833 -0.1258 -0.1443 -0.3529
    1DIPC   D3B 6455   0.255  28.139   5.205  0.0990  0.3170  0.0813
    1DIPC   C4B 6456   0.666  28.380   5.186 -0.0398 -0.0841 -0.0387
    1DIPC   NC3 6457   6.818  13.098   6.598  0.0010 -0.1695  0.1151
    1DIPC   PO4 6458   6.860  13.506   6.502  0.1174  0.2262 -0.1114
    1DIPC   GL1 6459   6.901  13.288   6.097  0.1384  0.0758 -0.0662
    1DIPC   GL2 6460   7.050  13.441   5.909 -0.0593 -0.2761 -0.4381
    1DIPC   C1A 6461   6.522  13.398   5.877  0.0876  0.1363 -0.0648
    1DIPC   D2A 6462   6.329  13.694   5.705 -0.1729 -0.1383 -0.0230
    1DIPC   D3A 6463   6.356  13.632   5.312  0.1278 -0.0437  0.2337
    1DIPC   C4A 6464   6.639  13.921   5.234  0.1004 -0.0763  0.1250
    1DIPC   C1B 6465   6.851  13.564   5.469 -0.0262  0.5014 -0.3733
    1DIPC   D2B 6466   6.804  13.398   4.990 -0.1449 -0.0552  0.5244
    1DIPC   D3B 6467   6.472  13.401   4.666 -0.2574  0.1325  0.1152
    1DIPC   C4B 6468   6.031  13.353   4.508 -0.1592  0.3736  0.1295
    1DIPC   NC3 6469  13.843  25.791   6.213 -0.1085 -0.0640  0.1314
    1DIPC   PO4 6470  14.006  25.554   5.859 -0.2462 -0.0634  0.1945
    1DIPC   GL1 6471  14.020  25.375   5.383  0.1737  0.0634  0.2554
    1DIPC   GL2 6472  14.112  25.174   5.284  0.0310  0.0119 -0.3299
    1DIPC   C1A 6473  13.884  25.516   4.971  0.1537  0.0952  0.0508
    1DIPC   D2A 6474  14.287  25.678   4.948  0.2575 -0.1628  0.3352
    1DIPC   D3A 6475  14.401  26.004   4.677 -0.1938 -0.1274  0.2248
    1DIPC   C4A 6476  14.738  25.976   4.351  0.1900 -0.2388 -0.1228
    1DIPC   C1B 6477  14.366  25.113   4.946 -0.1257 -0.2044 -0.0710
    1DIPC   D2B 6478  14.686  25.290   4.751 -0.4882  0.0318  0.0247
    1DIPC   D3B 6479  14.422  25.249   4.464  0.0427  0.1879  0.0160
    1DIPC   C4B 6480  14.588  25.028   3.985  0.2130 -0.0062 -0.0910
    1DIPC   NC3 6481  10.847  16.909   6.130  0.1920  0.1222 -0.0338
    1DIPC   PO4 6482  10.733  16.550   6.186 -0.0351 -0.2411  0.0804
    1DIPC   GL1 6483  10.982  16.527   5.745 -0.0782  0.1501 -0.2713
    1DIPC   GL2 6484  10.838  16.821   5.619 -0.0566  0.3395 -0.0524
    1DIPC   C1A 6485  10.958  16.445   5.223 -0.0303 -0.4121 -0.1404
    1DIPC   D2A 6486  10.791  16.421   4.740 -0.2029  0.2636 -0.0461
    1DIPC   D3A 6487  11.192  16.181   4.676 -0.0359  0.1244 -0.2506
    1DIPC   C4A 6488  11.575  16.070   4.511  0.0307  0.3448 -0.2137
    1DIPC   C1B 6489  10.699  16.908   5.216  0.0028 -0.0155  0.0823
    1DIPC   D2B 6490  10.635  17.060   4.827  0.0210 -0.0131  0.0906
    1DIPC   D3B 6491  10.615  17.468   4.605  0.0762 -0.2143  0.1814
    1DIPC   C4B 6492  10.225  17.438   4.310 -0.2539  0.2038 -0.0758
    1DIPC   NC3 6493   0.304  22.826   6.784 -0.1127 -0.0089 -0.2564
    1DIPC   PO4 6494  29.727  23.005   6.781 -0.0570 -0.4469 -0.2184
    1DIPC   GL1 6495  29.483  22.819   6.289 -0.3381  0.2408 -0.2561
    1DIPC   GL2 6496  29.211  23.101   6.031 -0.1006  0.4948 -0.3621
    1DIPC   C1A 6497  29.384  22.705   5.895  0.1996 -0.2049  0.0926
    1DIPC   D2A 6498  28.994  22.882   5.599 -0.2749 -0.0633 -0.1137
    1DIPC   D3A 6499  29.205  22.934   5.124  0.0849  0.0929  0.1163
    1DIPC   C4A 6500  29.643  22.857   5.063  0.0765 -0.1864 -0.2784
    1DIPC   C1B 6501  28.882  23.206   6.034 -0.2786 -0.0599 -0.2001
    1DIPC   D2B 6502  28.663  22.889   6.113 -0.3377  0.2256 -0.0651
    1DIPC   D3B 6503  28.464  22.900   5.736 -0.0574 -0.2363 -0.3379
    1DIPC   C4B 6504  28.182  23.000   5.388  0.2028 -0.2411 -0.0364
    1DIPC   NC3 6505  12.717  20.547   5.812 -0.1371 -0.3568  0.4392
    1DIPC   PO4 6506  12.479  20.557   5.489  0.0966 -0.0980  0.2604
    1DIPC   GL1 6507  12.687  20.342   5.277 -0.2381  0.4194 -0.1779
    1DIPC   GL2 6508  12.998  20.381   5.194  0.1379  0.0117 -0.2408
    1DIPC   C1A 6509  12.681  20.103   4.944  0.0467 -0.3021 -0.0422
    1DIPC   D2A 6510  12.590  19.835   4.647 -0.0359 -0.4473 -0.1600
    1DIPC   D3A 6511  12.105  19.934   4.509 -0.0949  0.1288  0.5140
    1DIPC   C4A 6512  12.062  20.374   4.483 -0.1307  0.1170 -0.2600
    1DIPC   C1B 6513  12.768  20.637   4.869  0.1448 -0.0485 -0.0137
    1DIPC   D2B 6514  12.767  21.114   4.815 -0.0318  0.0907 -0.1020
    1DIPC   D3B 6515  13.075  21.311   4.574  0.0389  0.2319 -0.4791
    1DIPC   C4B 6516  12.996  21.278   4.139 -0.1190  0.0773  0.1683
    1DIPC   NC3 6517   3.886  23.125   6.130  0.2119 -0.2009  0.0869
    1DIPC   PO4 6518   4.054  23.449   5.815 -0.0535 -0.1273  0.1667
    1DIPC   GL1 6519   4.120  23.370   5.242  0.2466 -0.1245  0.0608
    1DIPC   GL2 6520   4.357  23.290   5.175 -0.1663 -0.0317  0.3746
    1DIPC   C1A 6521   4.249  23.761   5.001  0.3356 -0.1154 -0.3330
    1DIPC   D2A 6522   4.327  23.952   4.726  0.0520  0.0353 -0.0269
    1DIPC   D3A 6523   4.315  24.379   4.861 -0.1021  0.3257  0.2354
    1DIPC   C4A 6524   4.056  24.284   5.114 -0.0018  0.2513  0.1173
    1DIPC   C1B 6525   4.397  23.348   4.703  0.1278  0.0029 -0.0489
    1DIPC   D2B 6526   4.394  23.545   4.327 -0.1140  0.1827  0.2307
    1DIPC   D3B 6527   4.720  23.240   4.245 -0.0133  0.1695 -0.0333
    1DIPC   C4B 6528   5.089  23.403   3.996 -0.4672  0.1047  0.0211
    1DIPC   NC3 6529   3.339   4.458   7.056 -0.1638 -0.1005  0.1005
    1DIPC   PO4 6530   3.470   4.492   6.670 -0.0051  0.0861 -0.1252
    1DIPC   GL1 6531   3.236   4.458   6.253 -0.2845 -0.2795  0.1456
    1DIPC   GL2 6532   3.110   4.636   6.031 -0.0837  0.4917 -0.0605
    1DIPC   C1A 6533   3.458   4.302   5.805  0.0226  0.0306 -0.1546
    1DIPC   D2A 6534   3.616   4.306   5.361 -0.1412  0.1924 -0.1304
    1DIPC   D3A 6535   3.317   4.082   4.996 -0.0128  0.4066  0.1960
    1DIPC   C4A 6536   3.227   3.626   5.077 -0.1378  0.1591  0.1429
    1DIPC   C1B 6537   2.976   4.832   5.707 -0.1934 -0.1565 -0.0957
    1DIPC   D2B 6538   2.748   4.811   5.356  0.0289 -0.0205 -0.0371
    1DIPC   D3B 6539   3.139   4.937   5.121  0.0373 -0.1278 -0.5618
    1DIPC   C4B 6540   3.406   4.746   5.433  0.0407 -0.1886  0.2395
    1DIPC   NC3 6541  28.267  11.103   6.763 -0.1971 -0.0332 -0.1816
    1DIPC   PO4 6542  27.964  10.734   6.629 -0.2955  0.1768  0.1050
    1DIPC   GL1 6543  28.114  10.944   6.311  0.0648  0.0586 -0.2959
    1DIPC   GL2 6544  28.346  11.094   6.211 -0.2215 -0.0184  0.1439
    1DIPC   C1A 6545  27.767  10.922   5.975  0.2326 -0.0655 -0.0662
    1DIPC   D2A 6546  27.381  11.115   5.917  0.0125 -0.0609 -0.1118
    1DIPC   D3A 6547  27.438  11.545   5.793  0.1584 -0.1511  0.2185
    1DIPC   C4A 6548  27.187  11.848   5.783 -0.2696 -0.1199  0.0844
    1DIPC   C1B 6549  28.361  11.122   5.711 -0.1607 -0.2595  0.2006
    1DIPC   D2B 6550  28.363  11.169   5.293 -0.1065  0.0128 -0.0701
    1DIPC   D3B 6551  27.933  11.089   5.053 -0.0862  0.1641  0.1995
    1DIPC   C4B 6552  27.755  11.419   4.840  0.0267 -0.0470  0.0376
    1DIPC   NC3 6553  29.322  10.919   6.503  0.1914  0.0323 -0.1285
    1DIPC   PO4 6554  29.191  11.352   6.557 -0.0100 -0.3534  0.1776
    1DIPC   GL1 6555  29.295  11.318   6.141 -0.1348 -0.2322 -0.0422
    1DIPC   GL2 6556  29.252  11.045   5.928 -0.0727 -0.1868 -0.0569
    1DIPC   C1A 6557  29.288  11.484   5.631  0.1396 -0.0983  0.1800
    1DIPC   D2A 6558  29.014  11.733   5.346  0.0131 -0.0636  0.3645
    1DIPC   D3A 6559  28.694  11.515   5.084 -0.0490 -0.0485  0.0734
    1DIPC   C4A 6560  28.246  11.489   4.895  0.1240  0.0112 -0.0070
    1DIPC   C1B 6561  28.954  11.009   5.608  0.3424  0.0971  0.1613
    1DIPC   D2B 6562  29.045  11.167   5.213 -0.1850  0.1764  0.0860
    1DIPC   D3B 6563  29.421  11.459   5.156 -0.0009  0.1453  0.0964
    1DIPC   C4B 6564  29.765  11.403   5.398  0.0485 -0.1691 -0.0213
    1DIPC   NC3 6565  15.824  20.865   5.231  0.0354 -0.1736 -0.0248
    1DIPC   PO4 6566  16.083  21.104   5.047  0.1596  0.1594  0.3697
    1DIPC   GL1 6567  15.965  21.129   4.647 -0.0252  0.2606  0.0826
    1DIPC   GL2 6568  16.106  21.429   4.603  0.0508  0.0592 -0.1547
    1DIPC   C1A 6569  15.944  20.826   4.375  0.0805  0.0646  0.1365
    1DIPC   D2A 6570  16.143  20.515   4.164 -0.1868  0.1988 -0.1635
    1DIPC   D3A 6571  16.222  20.791   3.809  0.0278  0.1210 -0.2345
    1DIPC   C4A 6572  16.597  20.917   3.829  0.2328 -0.1719 -0.1818
    1DIPC   C1B 6573  16.091  21.935   4.401 -0.2588 -0.0892  0.2883
    1DIPC   D2B 6574  16.223  22.132   4.040 -0.2547  0.1847  0.3017
    1DIPC   D3B 6575  16.268  21.759   3.669  0.1008 -0.3404 -0.0596
    1DIPC   C4B 6576  15.970  21.517   3.516  0.1382 -0.2458 -0.1176
    1DIPC   NC3 6577   5.773   4.567   7.092 -0.1260 -0.1317  0.0338
    1DIPC   PO4 6578   5.701   5.016   6.952  0.1629  0.2616 -0.1325
    1DIPC   GL1 6579   5.738   5.059   6.519 -0.1022  0.0720  0.0732
    1DIPC   GL2 6580   5.899   4.731   6.432 -0.0145  0.2100 -0.2657
    1DIPC   C1A 6581   5.561   4.932   6.123  0.2352  0.2912 -0.0652
    1DIPC   D2A 6582   5.380   4.765   5.893 -0.1914  0.0233 -0.1322
    1DIPC   D3A 6583   5.254   4.354   6.054  0.2622 -0.0906  0.2897
    1DIPC   C4A 6584   5.492   4.081   6.213  0.1175  0.0229 -0.0465
    1DIPC   C1B 6585   5.843   4.523   6.038 -0.0837 -0.2031  0.2194
    1DIPC   D2B 6586   5.776   4.262   5.687  0.1331 -0.1749  0.0687
    1DIPC   D3B 6587   5.569   4.605   5.431  0.0683  0.1373  0.0030
    1DIPC   C4B 6588   5.765   4.671   5.024 -0.0058 -0.0999  0.1104
    1DIPC   NC3 6589  28.967  17.035   6.663  0.0883  0.1053  0.1263
    1DIPC   PO4 6590  29.092  16.616   6.681 -0.0789  0.1750  0.2244
    1DIPC   GL1 6591  29.255  16.690   6.264 -0.1787 -0.1212  0.0310
    1DIPC   GL2 6592  29.056  16.996   6.095 -0.0484 -0.1326  0.1562
    1DIPC   C1A 6593  29.265  16.483   5.869 -0.1717 -0.0066  0.4140
    1DIPC   D2A 6594  29.281  16.052   5.843 -0.1469 -0.1979  0.0035
    1DIPC   D3A 6595  28.961  16.077   5.535  0.0115 -0.1420  0.0032
    1DIPC   C4A 6596  28.617  15.795   5.358 -0.0763 -0.1974  0.0876
    1DIPC   C1B 6597  28.787  17.076   5.864  0.0326 -0.1086 -0.1214
    1DIPC   D2B 6598  28.698  16.951   5.397 -0.0169  0.1083 -0.0949
    1DIPC   D3B 6599  28.656  17.350   5.287  0.1967  0.3625  0.1653
    1DIPC   C4B 6600  28.767  17.596   5.605 -0.2059 -0.1332 -0.1041
    1DIPC   NC3 6601  12.614   2.279   7.690  0.0380 -0.0994 -0.0680
    1DIPC   PO4 6602  12.396   2.253   7.231 -0.1433 -0.1018  0.0244
    1DIPC   GL1 6603  12.130   2.257   6.836 -0.0685  0.0735  0.2644
    1DIPC   GL2 6604  11.907   2.061   6.843 -0.2381  0.1103  0.1686
    1DIPC   C1A 6605  12.023   2.211   6.375  0.1377  0.1259  0.1091
    1DIPC   D2A 6606  11.896   2.045   5.866 -0.1453 -0.1933 -0.3380
    1DIPC   D3A 6607  11.950   2.451   5.896 -0.1210 -0.1196  0.0281
    1DIPC   C4A 6608  11.859   2.708   6.154 -0.0145  0.0912  0.2903
    1DIPC   C1B 6609  11.556   1.988   6.673  0.3558 -0.2713  0.2977
    1DIPC   D2B 6610  11.252   1.835   6.431 -0.1181  0.0756 -0.0355
    1DIPC   D3B 6611  11.008   2.063   6.171  0.2472 -0.1927  0.0557
    1DIPC   C4B 6612  11.078   1.995   5.724  0.2866  0.0201 -0.0323
    1DIPC   NC3 6613   7.004  28.963   6.418 -0.1357 -0.0025  0.0257
    1DIPC   PO4 6614   6.643  28.695   6.427 -0.2709 -0.0409 -0.0112
    1DIPC   GL1 6615   6.724  28.908   6.034 -0.1786  0.3196  0.0045
    1DIPC   GL2 6616   6.747  28.614   5.874 -0.0392  0.0156 -0.0582
    1DIPC   C1A 6617   6.943  29.222   5.740 -0.0926 -0.1875  0.1107
    1DIPC   D2A 6618   6.973  29.419   5.407  0.1073 -0.3489 -0.0475
    1DIPC   D3A 6619   6.916  29.791   5.396  0.1179  0.2303  0.3007
    1DIPC   C4A 6620   6.942   0.379   5.403 -0.1540  0.0867  0.2357
    1DIPC   C1B 6621   6.741  28.881   5.487 -0.1121  0.0052  0.2403
    1DIPC   D2B 6622   6.608  29.139   5.211 -0.0266  0.0320 -0.1245
    1DIPC   D3B 6623   6.260  29.181   4.803  0.0820 -0.1995  0.1269
    1DIPC   C4B 6624   6.105  29.659   4.645 -0.0141 -0.0363 -0.2715
    1DIPC   NC3 6625  27.440   4.393   7.033  0.4849 -0.2629 -0.0835
    1DIPC   PO4 6626  27.116   4.445   6.727 -0.1195 -0.0415  0.1655
    1DIPC   GL1 6627  27.057   4.601   6.334 -0.1359  0.1810  0.0647
    1DIPC   GL2 6628  26.863   4.398   6.230  0.2588  0.1986  0.1754
    1DIPC   C1A 6629  27.027   4.994   6.018  0.2199  0.1475  0.0357
    1DIPC   D2A 6630  26.854   5.132   5.638 -0.0649  0.3661 -0.0407
    1DIPC   D3A 6631  27.026   5.507   5.280 -0.0978  0.1080  0.1818
    1DIPC   C4A 6632  27.371   5.698   5.225 -0.0067  0.5555 -0.1200
    1DIPC   C1B 6633  26.901   4.436   5.867  0.2547 -0.2135 -0.0288
    1DIPC   D2B 6634  27.171   4.741   5.567  0.0802  0.1832  0.2637
    1DIPC   D3B 6635  26.829   4.735   5.330 -0.1518 -0.0880  0.0414
    1DIPC   C4B 6636  26.418   4.856   5.395 -0.2958 -0.1722  0.0417
    1DIPC   NC3 6637   1.795  11.862   6.880  0.2029 -0.1423 -0.1346
    1DIPC   PO4 6638   1.854  11.779   6.485 -0.0457  0.1556  0.0539
    1DIPC   GL1 6639   1.864  11.735   6.054 -0.0146  0.0951 -0.2963
    1DIPC   GL2 6640   2.166  11.721   6.038 -0.0595  0.3879  0.0962
    1DIPC   C1A 6641   1.916  11.871   5.650 -0.2541  0.0121  0.1120
    1DIPC   D2A 6642   1.968  12.064   5.189  0.3963  0.1902  0.0558
    1DIPC   D3A 6643   1.990  12.434   4.951  0.1221  0.0531 -0.0152
    1DIPC   C4A 6644   1.881  12.359   4.528 -0.1273  0.0783 -0.0302
    1DIPC   C1B 6645   2.103  11.442   5.710  0.0719  0.2444  0.2775
    1DIPC   D2B 6646   2.071  11.089   5.438 -0.1925  0.0235 -0.0173
    1DIPC   D3B 6647   2.321  10.800   5.212 -0.0292  0.0552  0.0191
    1DIPC   C4B 6648   2.618  10.770   4.918  0.0671  0.4388  0.0398
    1DIPC   NC3 6649   0.429   9.526   6.225 -0.0488 -0.1188 -0.0261
    1DIPC   PO4 6650   0.900   9.376   6.258  0.0231  0.1042  0.0406
    1DIPC   GL1 6651   1.105   9.639   6.013  0.2319  0.2229  0.0319
    1DIPC   GL2 6652   0.817   9.694   5.906 -0.1094 -0.1912 -0.1842
    1DIPC   C1A 6653   1.338   9.431   5.613 -0.0362 -0.0970  0.1584
    1DIPC   D2A 6654   1.329   9.573   5.157 -0.1430 -0.0644 -0.1669
    1DIPC   D3A 6655   1.511   9.199   5.211 -0.0383  0.1305 -0.0400
    1DIPC   C4A 6656   1.999   9.156   5.214 -0.3572 -0.2423  0.0999
    1DIPC   C1B 6657   0.851   9.456   5.555  0.1450  0.0372 -0.0640
    1DIPC   D2B 6658   0.841   9.585   5.143  0.0658 -0.2094  0.1118
    1DIPC   D3B 6659   0.737   9.548   4.712 -0.1481  0.0781 -0.1925
    1DIPC   C4B 6660   0.420   9.791   4.530  0.1870 -0.0351  0.2924
    1DIPC   NC3 6661   0.386   1.622   6.567  0.0634  0.2512 -0.0993
    1DIPC   PO4 6662   0.520   1.781   6.349 -0.0600  0.2661 -0.0904
    1DIPC   GL1 6663   0.626   1.632   5.957  0.5688 -0.1201  0.2405
    1DIPC   GL2 6664   0.385   1.846   5.841  0.0012  0.2209 -0.1061
    1DIPC   C1A 6665   0.782   1.876   5.539  0.1828  0.1334 -0.0006
    1DIPC   D2A 6666   0.664   1.812   5.063  0.2347 -0.0754  0.3046
    1DIPC   D3A 6667   0.793   1.680   4.640  0.0064  0.0929  0.1936
    1DIPC   C4A 6668   0.480   1.638   4.249  0.0365 -0.0214  0.1107
    1DIPC   C1B 6669   0.078   1.558   5.654  0.0640 -0.0680 -0.1785
    1DIPC   D2B 6670   0.000   1.234   5.360 -0.3108 -0.4687 -0.0019
    1DIPC   D3B 6671   0.065   1.563   5.057 -0.2048 -0.3787  0.2340
    1DIPC   C4B 6672   0.335   1.459   4.684  0.0481  0.0622 -0.1998
    1DIPC   NC3 6673   0.727   4.193   6.514  0.1400 -0.0711 -0.1993
    1DIPC   PO4 6674   0.845   3.936   6.772 -0.1127  0.0869 -0.0728
    1DIPC   GL1 6675   0.672   3.562   6.665 -0.1339  0.0939 -0.2072
    1DIPC   GL2 6676   0.386   3.591   6.760  0.0508  0.0907 -0.3998
    1DIPC   C1A 6677   0.812   3.238   6.523 -0.1045 -0.1525  0.2669
    1DIPC   D2A 6678   0.790   3.159   6.102  0.1233 -0.1090  0.0294
    1DIPC   D3A 6679   0.506   2.839   6.250  0.1083  0.2900  0.0859
    1DIPC   C4A 6680   0.040   2.895   6.149 -0.0597  0.2129  0.1623
    1DIPC   C1B 6681   0.286   3.431   6.390  0.1392  0.2344  0.2292
    1DIPC   D2B 6682  29.783   3.383   6.171  0.2531  0.1288 -0.2643
    1DIPC   D3B 6683   0.310   3.198   5.908  0.0164 -0.0559 -0.0819
    1DIPC   C4B 6684   0.585   3.405   5.685  0.0909  0.0721  0.0671
    1DIPC   NC3 6685  28.250  29.772   6.497 -0.4412 -0.2189  0.0481
    1DIPC   PO4 6686  28.629   0.070   6.332 -0.0827 -0.1060  0.0066
    1DIPC   GL1 6687  28.691   0.059   5.902 -0.3201  0.4277 -0.0741
    1DIPC   GL2 6688  28.585   0.334   5.798  0.1682  0.4540  0.2464
    1DIPC   C1A 6689  28.420  29.705   5.554 -0.2386 -0.1873  0.2040
    1DIPC   D2A 6690  28.292  29.824   5.131  0.1482 -0.0067  0.0293
    1DIPC   D3A 6691  28.507   0.333   5.178  0.1457  0.0500  0.1458
    1DIPC   C4A 6692  28.701   0.508   4.808  0.0396 -0.3065 -0.0269
    1DIPC   C1B 6693  28.902   0.450   5.448 -0.3181 -0.0851  0.1130
    1DIPC   D2B 6694  29.210   0.662   5.158 -0.2269 -0.2846 -0.1681
    1DIPC   D3B 6695  29.229   1.078   5.088 -0.0471 -0.2967 -0.2451
    1DIPC   C4B 6696  28.943   1.382   5.021  0.0943 -0.2350 -0.0456
    1DIPC   NC3 6697  29.249  12.517   6.918  0.2819 -0.2791  0.0084
    1DIPC   PO4 6698  29.167  12.089   6.957 -0.3132 -0.0133 -0.3111
    1DIPC   GL1 6699  29.159  12.066   6.468 -0.2744 -0.0261  0.0807
    1DIPC   GL2 6700  29.020  11.767   6.303  0.0241  0.0326  0.1742
    1DIPC   C1A 6701  29.408  12.215   6.101  0.1315  0.0445  0.1683
    1DIPC   D2A 6702  29.669  12.227   5.694 -0.1277 -0.1445  0.0026
    1DIPC   D3A 6703  29.435  11.923   5.536 -0.0697  0.3335  0.1019
    1DIPC   C4A 6704  29.405  11.921   5.030  0.2887  0.1980 -0.1538
    1DIPC   C1B 6705  28.984  11.930   5.807 -0.1596  0.1818 -0.2438
    1DIPC   D2B 6706  29.173  12.345   5.690  0.1112 -0.0235 -0.1688
    1DIPC   D3B 6707  29.358  12.397   5.261 -0.2344  0.2140  0.0245
    1DIPC   C4B 6708  29.680  12.566   5.069 -0.0940 -0.0669  0.0194
    1DIPC   NC3 6709  16.916  18.433   6.133 -0.2708  0.0756  0.0269
    1DIPC   PO4 6710  16.614  18.180   6.123  0.0538  0.2388 -0.0890
    1DIPC   GL1 6711  16.474  18.120   5.677 -0.1924 -0.2212 -0.1037
    1DIPC   GL2 6712  16.206  17.976   5.524  0.1430  0.0139  0.0139
    1DIPC   C1A 6713  16.663  17.961   5.278 -0.0591  0.0310 -0.1590
    1DIPC   D2A 6714  16.935  18.128   4.998 -0.1530  0.3592  0.2683
    1DIPC   D3A 6715  16.696  17.962   4.692 -0.1406 -0.1998  0.4492
    1DIPC   C4A 6716  16.474  18.113   4.420 -0.0839 -0.0099  0.1207
    1DIPC   C1B 6717  16.130  17.879   5.134  0.1168  0.0032  0.0200
    1DIPC   D2B 6718  16.110  17.914   4.723  0.1067 -0.2640 -0.0490
    1DIPC   D3B 6719  15.968  18.339   4.590 -0.0820  0.0715 -0.3464
    1DIPC   C4B 6720  15.827  18.348   4.162  0.0606  0.0778  0.3693
    1DIPC   NC3 6721  19.651   3.996   8.068 -0.2174  0.2402 -0.1580
    1DIPC   PO4 6722  19.380   4.350   8.022  0.0821 -0.0362 -0.0833
    1DIPC   GL1 6723  19.635   4.501   7.774  0.0077 -0.0488 -0.0469
    1DIPC   GL2 6724  19.433   4.488   7.508  0.0108  0.1044  0.2418
    1DIPC   C1A 6725  19.937   4.841   7.514  0.4987 -0.0444  0.1895
    1DIPC   D2A 6726  20.338   4.964   7.341  0.0615  0.2078  0.0275
    1DIPC   D3A 6727  20.326   4.496   7.255  0.0463  0.0015  0.4790
    1DIPC   C4A 6728  20.557   4.319   7.062  0.1167  0.0920  0.1112
    1DIPC   C1B 6729  19.808   4.384   7.188 -0.1305  0.0503  0.0126
    1DIPC   D2B 6730  20.176   4.053   7.099  0.2876 -0.1691  0.1179
    1DIPC   D3B 6731  20.197   4.285   6.693 -0.1730 -0.1121 -0.1439
    1DIPC   C4B 6732  19.999   4.256   6.254 -0.0319  0.0234  0.2691
    1DIPC   NC3 6733  21.773   8.542   8.507 -0.0487  0.0337  0.0338
    1DIPC   PO4 6734  21.461   8.186   8.293 -0.3432 -0.3016 -0.0907
    1DIPC   GL1 6735  21.654   8.128   7.816  0.1068  0.0187  0.0991
    1DIPC   GL2 6736  21.398   7.917   7.586 -0.1470 -0.2724  0.1758
    1DIPC   C1A 6737  21.673   8.258   7.354 -0.3373 -0.0393  0.0710
    1DIPC   D2A 6738  21.958   8.156   6.980  0.3229  0.0658 -0.1387
    1DIPC   D3A 6739  21.688   7.896   6.846  0.1776 -0.0428  0.1518
    1DIPC   C4A 6740  21.668   7.756   6.444  0.2711  0.0464  0.1549
    1DIPC   C1B 6741  21.649   7.685   7.302  0.0741  0.1979  0.0572
    1DIPC   D2B 6742  22.046   7.639   7.192 -0.1680 -0.0299  0.2135
    1DIPC   D3B 6743  22.138   7.675   6.826 -0.3783  0.0964 -0.0551
    1DIPC   C4B 6744  22.385   7.767   6.463 -0.2042 -0.0758 -0.0067
    1DIPC   NC3 6745   7.829  26.904   6.156  0.2017  0.0490  0.0981
    1DIPC   PO4 6746   7.975  27.358   6.114  0.2794  0.0732  0.0449
    1DIPC   GL1 6747   8.382  27.352   5.901  0.0910 -0.0609 -0.1686
    1DIPC   GL2 6748   8.469  27.102   5.697 -0.2468  0.2037 -0.0671
    1DIPC   C1A 6749   8.453  27.600   5.517 -0.1487 -0.0361 -0.3048
    1DIPC   D2A 6750   8.613  27.925   5.143  0.1350 -0.0852 -0.1910
    1DIPC   D3A 6751   8.539  27.767   4.701 -0.3198  0.0242 -0.2344
    1DIPC   C4A 6752   8.588  28.064   4.358  0.1354  0.0139  0.0146
    1DIPC   C1B 6753   8.272  27.134   5.315 -0.2576 -0.5163  0.2451
    1DIPC   D2B 6754   8.104  27.025   4.881  0.0451  0.1703 -0.0720
    1DIPC   D3B 6755   8.104  27.313   4.566  0.0904  0.4881  0.2178
    1DIPC   C4B 6756   7.956  27.856   4.586  0.4031 -0.0044  0.0738
    1DIPC   NC3 6757  24.312   6.929   8.065 -0.2312  0.0835 -0.0503
    1DIPC   PO4 6758  24.495   6.972   7.614  0.1249 -0.0301 -0.0320
    1DIPC   GL1 6759  24.276   6.936   7.162 -0.3742  0.1271  0.1184
    1DIPC   GL2 6760  24.276   7.256   7.156  0.0101 -0.0581  0.2656
    1DIPC   C1A 6761  24.267   7.035   6.682 -0.0983 -0.1245  0.1005
    1DIPC   D2A 6762  24.237   7.028   6.213  0.1503 -0.0022  0.0376
    1DIPC   D3A 6763  24.687   6.934   6.267  0.1919  0.0680 -0.1437
    1DIPC   C4A 6764  25.022   6.632   6.477  0.0324 -0.0071  0.1906
    1DIPC   C1B 6765  24.480   7.392   6.894 -0.2288 -0.2000 -0.3150
    1DIPC   D2B 6766  24.472   7.380   6.434  0.0578 -0.0262 -0.2502
    1DIPC   D3B 6767  24.398   7.476   6.094  0.1444  0.0404  0.0133
    1DIPC   C4B 6768  24.697   7.735   5.928 -0.2981 -0.1137  0.0394
    1DIPC   NC3 6769   0.624  15.947   6.742  0.2391 -0.0156 -0.1640
    1DIPC   PO4 6770   0.506  15.775   6.330  0.0401 -0.2321  0.0720
    1DIPC   GL1 6771   0.379  15.971   6.065 -0.0032 -0.2770 -0.0926
    1DIPC   GL2 6772   0.107  16.020   6.005 -0.0354  0.3659 -0.3422
    1DIPC   C1A 6773   0.411  16.027   5.633 -0.0773 -0.4461 -0.1693
    1DIPC   D2A 6774   0.588  15.996   5.202 -0.0884  0.1924 -0.2119
    1DIPC   D3A 6775   0.548  15.679   4.941 -0.2911  0.0186  0.2540
    1DIPC   C4A 6776   0.451  15.484   4.593 -0.1448  0.4486  0.0243
    1DIPC   C1B 6777  29.813  16.402   5.710 -0.2402 -0.1559 -0.0800
    1DIPC   D2B 6778  29.516  16.508   5.460  0.2100  0.0206  0.3122
    1DIPC   D3B 6779  29.393  16.190   5.321  0.0078  0.0560 -0.1709
    1DIPC   C4B 6780  29.452  16.095   4.899  0.1975  0.0280  0.1981
    1DIPC   NC3 6781  27.255  17.758   6.321 -0.3770 -0.0608  0.0878
    1DIPC   PO4 6782  27.359  18.288   6.285 -0.0109  0.0604  0.1070
    1DIPC   GL1 6783  27.682  18.318   5.992 -0.1839  0.1175 -0.1262
    1DIPC   GL2 6784  27.551  18.258   5.796 -0.2688 -0.2140  0.0228
    1DIPC   C1A 6785  28.141  18.499   5.880 -0.0906 -0.0083  0.0725
    1DIPC   D2A 6786  28.279  18.960   5.813 -0.0624  0.0208  0.1971
    1DIPC   D3A 6787  28.596  18.683   5.767 -0.4020  0.2066  0.1622
    1DIPC   C4A 6788  28.898  18.554   5.550  0.2222 -0.4270  0.1997
    1DIPC   C1B 6789  27.592  18.414   5.337 -0.0827 -0.2266 -0.2628
    1DIPC   D2B 6790  27.511  18.714   5.025 -0.2896  0.1624 -0.1163
    1DIPC   D3B 6791  27.287  18.921   4.594  0.1710  0.0488  0.0742
    1DIPC   C4B 6792  26.792  19.075   4.760 -0.1972 -0.0831 -0.3667
    1DIPC   NC3 6793  17.366  26.715   6.215  0.1498 -0.1632  0.0995
    1DIPC   PO4 6794  17.068  26.366   6.183 -0.3850 -0.0324 -0.0146
    1DIPC   GL1 6795  17.425  26.470   5.798  0.2845 -0.3884  0.2663
    1DIPC   GL2 6796  17.332  26.701   5.489  0.1581 -0.0679  0.2373
    1DIPC   C1A 6797  17.738  26.456   5.490  0.0493  0.1143 -0.2085
    1DIPC   D2A 6798  17.837  26.272   5.027  0.1328 -0.1232  0.0115
    1DIPC   D3A 6799  17.956  25.891   4.938 -0.0763 -0.0631  0.1379
    1DIPC   C4A 6800  17.988  25.566   5.259  0.0776  0.1619 -0.1819
    1DIPC   C1B 6801  17.427  26.551   5.080  0.0356 -0.1368  0.1852
    1DIPC   D2B 6802  17.582  26.614   4.655 -0.4554  0.2255 -0.1737
    1DIPC   D3B 6803  17.362  26.947   4.407  0.3184  0.3273 -0.2670
    1DIPC   C4B 6804  17.272  27.211   4.704  0.0231  0.2370  0.1793
    1DIPC   NC3 6805  11.719  18.067   5.849 -0.1328 -0.2371  0.3570
    1DIPC   PO4 6806  11.339  17.796   5.818 -0.3030 -0.1344  0.1085
    1DIPC   GL1 6807  11.317  17.728   5.430  0.0776 -0.0704  0.1931
    1DIPC   GL2 6808  11.515  17.977   5.282  0.3596 -0.0515  0.2926
    1DIPC   C1A 6809  11.147  17.753   5.025  0.1971  0.2082  0.1922
    1DIPC   D2A 6810  10.790  17.975   4.725 -0.2674  0.0791 -0.1755
    1DIPC   D3A 6811  11.083  17.735   4.544  0.0474 -0.2341 -0.1589
    1DIPC   C4A 6812  10.917  17.452   4.155 -0.0172 -0.0323  0.0816
    1DIPC   C1B 6813  11.639  17.908   4.923  0.0759 -0.3577  0.0970
    1DIPC   D2B 6814  11.511  17.526   4.675  0.1202  0.1267 -0.2485
    1DIPC   D3B 6815  11.490  17.498   4.196 -0.3393 -0.0586 -0.2029
    1DIPC   C4B 6816  11.566  17.205   4.097  0.0886  0.3339  0.0325
    1DIPC   NC3 6817   4.001  12.243   5.991 -0.1932  0.1589  0.0959
    1DIPC   PO4 6818   3.908  11.765   6.033  0.0091 -0.2247 -0.1919
    1DIPC   GL1 6819   3.654  11.840   5.732  0.1799  0.4188 -0.2728
    1DIPC   GL2 6820   3.852  11.972   5.547 -0.1159  0.3904 -0.3010
    1DIPC   C1A 6821   3.462  11.866   5.259 -0.2309  0.0928 -0.0276
    1DIPC   D2A 6822   3.323  11.637   4.975 -0.2666 -0.1647 -0.0096
    1DIPC   D3A 6823   3.024  11.955   4.931 -0.1765  0.0820 -0.5026
    1DIPC   C4A 6824   3.046  12.089   4.539  0.2846 -0.0821  0.1128
    1DIPC   C1B 6825   3.814  12.246   5.254  0.0583  0.5016  0.2063
    1DIPC   D2B 6826   3.743  12.498   4.885  0.0278  0.0395 -0.1334
    1DIPC   D3B 6827   3.946  12.519   4.351 -0.2321  0.1410 -0.2590
    1DIPC   C4B 6828   4.154  12.311   4.029 -0.3688  0.0961  0.1104
    1DIPC   NC3 6829  10.931  17.651   6.122 -0.0525 -0.1860  0.1343
    1DIPC   PO4 6830  10.579  17.382   6.043 -0.2038 -0.0509  0.3687
    1DIPC   GL1 6831  10.583  17.304   5.649  0.1316  0.0595  0.3511
    1DIPC   GL2 6832  10.326  17.166   5.567  0.0814  0.1084 -0.1269
    1DIPC   C1A 6833  10.775  17.407   5.203 -0.0949  0.0079  0.0435
    1DIPC   D2A 6834  11.077  17.313   4.820 -0.0828  0.2597  0.4562
    1DIPC   D3A 6835  11.243  17.153   4.454 -0.0593 -0.2559 -0.1534
    1DIPC   C4A 6836  11.537  16.801   4.341 -0.1871  0.1758  0.0421
    1DIPC   C1B 6837  10.204  16.922   5.211 -0.0155  0.2794  0.0545
    1DIPC   D2B 6838  10.264  16.617   4.817  0.0083  0.0248  0.1387
    1DIPC   D3B 6839  10.439  16.476   5.196  0.0816  0.3240 -0.0432
    1DIPC   C4B 6840  10.383  16.607   5.625 -0.3187  0.2706  0.2028
    1DIPC   NC3 6841   8.713  12.836   6.168  0.2849 -0.0547 -0.2065
    1DIPC   PO4 6842   8.507  12.486   6.371  0.2251  0.1005 -0.0109
    1DIPC   GL1 6843   8.295  12.600   5.953 -0.1436 -0.0703 -0.3394
    1DIPC   GL2 6844   8.445  12.403   5.699  0.4793 -0.0506 -0.0679
    1DIPC   C1A 6845   8.019  12.686   5.644 -0.1303 -0.0829 -0.1333
    1DIPC   D2A 6846   7.710  12.789   5.374 -0.2546  0.1922 -0.0274
    1DIPC   D3A 6847   7.671  13.066   5.203  0.1339 -0.0798  0.0550
    1DIPC   C4A 6848   7.754  13.107   4.854 -0.2877  0.1709  0.1003
    1DIPC   C1B 6849   8.122  12.286   5.325 -0.2804 -0.0709  0.1157
    1DIPC   D2B 6850   7.701  12.294   5.206  0.0109  0.0677 -0.1640
    1DIPC   D3B 6851   7.474  12.511   4.919  0.1508  0.0976  0.1765
    1DIPC   C4B 6852   7.096  12.477   4.927 -0.3064 -0.2430  0.0461
    1DIPC   NC3 6853  20.720  22.863   5.551  0.0829  0.0860 -0.3463
    1DIPC   PO4 6854  20.628  22.574   5.900 -0.2299  0.0233 -0.1393
    1DIPC   GL1 6855  21.064  22.531   5.686  0.0653  0.2339 -0.2191
    1DIPC   GL2 6856  21.452  22.646   5.733  0.2437 -0.1755  0.2390
    1DIPC   C1A 6857  21.242  22.611   5.223 -0.0914  0.0225 -0.0637
    1DIPC   D2A 6858  21.180  22.847   4.867 -0.4077  0.1508 -0.0344
    1DIPC   D3A 6859  20.757  22.921   5.112 -0.0336 -0.0285  0.0008
    1DIPC   C4A 6860  20.344  22.845   4.909 -0.0128 -0.2840 -0.0479
    1DIPC   C1B 6861  21.798  22.425   5.473  0.0850  0.1800 -0.1834
    1DIPC   D2B 6862  22.230  22.241   5.430  0.1220 -0.0997  0.1801
    1DIPC   D3B 6863  22.535  22.446   5.045  0.0273  0.1070 -0.0029
    1DIPC   C4B 6864  22.555  22.202   4.715  0.0238  0.2285 -0.1771
    1DIPC   NC3 6865  14.321  22.391   5.775 -0.0034  0.1907 -0.0621
    1DIPC   PO4 6866  14.641  22.786   5.589 -0.1668  0.2644 -0.0172
    1DIPC   GL1 6867  14.564  22.808   5.107  0.2364  0.1142 -0.1611
    1DIPC   GL2 6868  14.664  22.515   5.033 -0.0438  0.1509  0.1196
    1DIPC   C1A 6869  14.554  22.785   4.631  0.2467 -0.1835  0.1220
    1DIPC   D2A 6870  14.543  23.177   4.333 -0.3371  0.1574  0.1961
    1DIPC   D3A 6871  14.516  23.275   3.911  0.1518  0.1388  0.0374
    1DIPC   C4A 6872  14.365  23.041   3.575 -0.2062  0.0452 -0.1781
    1DIPC   C1B 6873  14.850  22.362   4.554 -0.1917 -0.0025 -0.1317
    1DIPC   D2B 6874  14.846  22.138   4.198 -0.1310 -0.0546  0.3737
    1DIPC   D3B 6875  14.738  21.694   4.084 -0.2320  0.0138 -0.1256
    1DIPC   C4B 6876  14.663  21.523   3.750  0.0127 -0.0292  0.0148
    1DIPC   NC3 6877   4.163   8.733   6.824  0.1019 -0.0220  0.1604
    1DIPC   PO4 6878   4.500   8.867   6.498 -0.1432 -0.1945  0.1837
    1DIPC   GL1 6879   4.621   8.746   6.105  0.0401  0.1620  0.0702
    1DIPC   GL2 6880   4.947   8.949   6.065 -0.0739  0.0173 -0.0529
    1DIPC   C1A 6881   4.629   8.555   5.823  0.4220 -0.3031  0.2314
    1DIPC   D2A 6882   4.652   8.404   5.461  0.0442 -0.3841  0.0679
    1DIPC   D3A 6883   4.352   8.533   5.257  0.3331 -0.3248 -0.1358
    1DIPC   C4A 6884   4.411   8.823   4.855 -0.0983  0.0300  0.1283
    1DIPC   C1B 6885   4.954   9.231   5.702 -0.0100  0.0126  0.1360
    1DIPC   D2B 6886   5.085   9.221   5.207  0.1448  0.3583  0.1452
    1DIPC   D3B 6887   4.610   9.190   5.138  0.1239  0.3019  0.2789
    1DIPC   C4B 6888   4.584   9.530   4.719 -0.1728 -0.0950  0.0831
    1DIPC   NC3 6889  25.567  19.595   6.394  0.1195  0.0553 -0.2299
    1DIPC   PO4 6890  25.207  19.905   6.225  0.0348  0.4659  0.0506
    1DIPC   GL1 6891  25.192  19.827   5.781 -0.0407 -0.2764  0.0020
    1DIPC   GL2 6892  25.252  20.128   5.635  0.4223  0.1376 -0.2136
    1DIPC   C1A 6893  24.992  19.435   5.578  0.0847  0.0091 -0.0703
    1DIPC   D2A 6894  24.649  19.129   5.680 -0.1528 -0.1887  0.2607
    1DIPC   D3A 6895  25.011  18.960   5.808  0.1933 -0.1705  0.2540
    1DIPC   C4A 6896  25.410  19.027   5.553  0.0584  0.1625 -0.0757
    1DIPC   C1B 6897  25.414  19.961   5.196  0.1280  0.0077 -0.1576
    1DIPC   D2B 6898  25.558  19.810   4.870 -0.0004 -0.0576 -0.1208
    1DIPC   D3B 6899  25.148  19.711   4.635  0.0469  0.0952 -0.3083
    1DIPC   C4B 6900  24.814  19.999   4.479  0.3321 -0.0110 -0.2325
    1DIPC   NC3 6901  27.934  12.311   7.375 -0.0290  0.1526  0.0989
    1DIPC   PO4 6902  27.905  12.300   6.918 -0.0706 -0.0575 -0.1097
    1DIPC   GL1 6903  27.808  12.082   6.444  0.0604 -0.0262  0.1375
    1DIPC   GL2 6904  27.655  12.338   6.245 -0.3759 -0.1458 -0.1341
    1DIPC   C1A 6905  27.499  11.871   6.207 -0.1579  0.0240 -0.0241
    1DIPC   D2A 6906  27.331  11.441   6.313  0.1120  0.2214  0.1212
    1DIPC   D3A 6907  27.071  11.773   6.556 -0.3082 -0.0016  0.4414
    1DIPC   C4A 6908  27.065  12.135   6.281  0.0812  0.0635 -0.0037
    1DIPC   C1B 6909  27.667  12.429   5.789  0.0746 -0.0596 -0.2822
    1DIPC   D2B 6910  28.027  12.443   5.479  0.0110  0.0250  0.1833
    1DIPC   D3B 6911  28.382  12.203   5.107  0.0722 -0.2468  0.0200
    1DIPC   C4B 6912  28.496  12.423   4.682 -0.1394  0.0435 -0.1334
    1DIPC   NC3 6913  10.620  22.095   6.290 -0.0035  0.2988  0.4074
    1DIPC   PO4 6914  10.566  22.024   5.837 -0.0273  0.3818 -0.1614
    1DIPC   GL1 6915  10.519  22.033   5.313 -0.1353 -0.0311 -0.1384
    1DIPC   GL2 6916  10.327  21.858   5.090  0.1753  0.0616  0.2309
    1DIPC   C1A 6917  10.708  22.152   5.005  0.0889 -0.2065  0.1436
    1DIPC   D2A 6918  10.999  22.168   4.675 -0.1431 -0.1855 -0.1069
    1DIPC   D3A 6919  11.210  22.434   4.308  0.2021 -0.1977  0.3306
    1DIPC   C4A 6920  10.931  22.330   3.933 -0.3392  0.1069  0.2090
    1DIPC   C1B 6921  10.538  21.830   4.631 -0.0980 -0.2624  0.1988
    1DIPC   D2B 6922  10.892  21.932   4.284  0.2099  0.0467 -0.2718
    1DIPC   D3B 6923  11.243  21.928   4.089 -0.2529  0.4300 -0.2148
    1DIPC   C4B 6924  11.411  22.221   3.689  0.2499 -0.0091 -0.1031
    1DIPC   NC3 6925   3.455   2.519   6.368  0.2675 -0.3478 -0.1452
    1DIPC   PO4 6926   3.420   2.048   6.530  0.2913  0.2035  0.0661
    1DIPC   GL1 6927   3.230   1.889   6.226  0.2401  0.2613  0.0538
    1DIPC   GL2 6928   3.415   1.729   6.006 -0.1554 -0.3009  0.0611
    1DIPC   C1A 6929   2.837   2.081   6.115  0.1608  0.0120 -0.5399
    1DIPC   D2A 6930   2.568   2.243   6.419 -0.1182 -0.1726  0.1699
    1DIPC   D3A 6931   2.457   2.430   5.983  0.0791 -0.0646 -0.2889
    1DIPC   C4A 6932   2.724   2.483   5.672  0.0775  0.0318  0.1576
    1DIPC   C1B 6933   3.528   1.935   5.738  0.0423 -0.1494 -0.0688
    1DIPC   D2B 6934   3.301   2.072   5.353 -0.1408 -0.3656 -0.0150
    1DIPC   D3B 6935   3.054   2.224   4.900 -0.1914  0.4082  0.0411
    1DIPC   C4B 6936   3.008   1.869   4.526  0.0320 -0.1347  0.0148
    1DIPC   NC3 6937  28.557  10.673   6.550  0.3813  0.2026 -0.1756
    1DIPC   PO4 6938  28.841  10.950   6.324 -0.2768 -0.0366  0.0188
    1DIPC   GL1 6939  28.657  10.660   6.078 -0.3486  0.3352 -0.0531
    1DIPC   GL2 6940  28.942  10.598   5.889  0.0439 -0.0831  0.1234
    1DIPC   C1A 6941  28.261  10.604   5.854  0.3287  0.0444 -0.2521
    1DIPC   D2A 6942  28.073  10.801   5.543  0.1475  0.0447  0.2501
    1DIPC   D3A 6943  27.788  11.117   5.540 -0.0270  0.2223  0.1412
    1DIPC   C4A 6944  27.428  11.213   5.269 -0.0137  0.2543  0.3530
    1DIPC   C1B 6945  28.589  10.710   5.492 -0.1705  0.2002 -0.1297
    1DIPC   D2B 6946  28.370  10.689   5.144 -0.0501  0.2903 -0.8068
    1DIPC   D3B 6947  28.752  10.786   5.038 -0.4399  0.1825  0.0794
    1DIPC   C4B 6948  28.978  10.996   4.606 -0.0474  0.2716  0.1515
    1DIPC   NC3 6949  20.298   3.393   7.853 -0.2212 -0.0678 -0.1715
    1DIPC   PO4 6950  20.166   3.797   8.062 -0.5811  0.3498  0.3404
    1DIPC   GL1 6951  19.989   3.827   7.581 -0.1254  0.0162 -0.2547
    1DIPC   GL2 6952  20.191   3.499   7.405  0.1109  0.2795 -0.0168
    1DIPC   C1A 6953  19.765   3.906   7.270 -0.0323 -0.1047  0.2833
    1DIPC   D2A 6954  19.244   4.007   7.229  0.1493 -0.2807 -0.2577
    1DIPC   D3A 6955  19.353   4.319   7.008  0.1660  0.1994  0.0270
    1DIPC   C4A 6956  19.243   4.757   7.017 -0.0920  0.1314  0.0887
    1DIPC   C1B 6957  20.418   3.491   7.086  0.2270 -0.2447  0.1494
    1DIPC   D2B 6958  20.773   3.471   6.731 -0.0101 -0.0689  0.2222
    1DIPC   D3B 6959  20.495   3.412   6.441 -0.0565  0.1931 -0.1508
    1DIPC   C4B 6960  20.526   3.266   5.976 -0.3503 -0.0330  0.2284
    1DIPC   NC3 6961   1.825  15.226   6.675  0.0573  0.2374 -0.1454
    1DIPC   PO4 6962   1.798  15.533   6.405  0.0363 -0.2940 -0.1810
    1DIPC   GL1 6963   1.687  15.520   5.900 -0.1490  0.0924 -0.1655
    1DIPC   GL2 6964   1.457  15.810   5.901  0.0614 -0.4018  0.1868
    1DIPC   C1A 6965   1.802  15.626   5.516 -0.0927 -0.2090 -0.2749
    1DIPC   D2A 6966   1.913  15.960   5.216  0.1128  0.0181 -0.0990
    1DIPC   D3A 6967   2.052  15.636   4.890  0.1638  0.0158 -0.1333
    1DIPC   C4A 6968   1.798  15.333   4.949  0.0618  0.2298 -0.1425
    1DIPC   C1B 6969   1.167  15.756   5.605 -0.1730  0.0592  0.1736
    1DIPC   D2B 6970   1.115  15.290   5.659  0.0449  0.0139  0.3563
    1DIPC   D3B 6971   1.470  15.209   5.368  0.2758 -0.3859 -0.1278
    1DIPC   C4B 6972   1.442  15.572   5.188 -0.2430 -0.0815  0.1764
    1DIPC   NC3 6973  29.803  13.622   7.035 -0.2214  0.0230 -0.0616
    1DIPC   PO4 6974  29.723  13.883   6.655 -0.1751 -0.1620  0.0617
    1DIPC   GL1 6975  29.710  13.834   6.210 -0.1539 -0.0127 -0.3251
    1DIPC   GL2 6976   0.033  13.568   6.135 -0.0536  0.1497 -0.0692
    1DIPC   C1A 6977  29.803  13.815   5.717  0.2333 -0.1193 -0.0598
    1DIPC   D2A 6978   0.052  13.661   5.311 -0.1472 -0.1050  0.1515
    1DIPC   D3A 6979  29.600  13.395   5.114 -0.2082 -0.0291 -0.0897
    1DIPC   C4A 6980  29.342  13.061   5.192  0.1406  0.1524 -0.3630
    1DIPC   C1B 6981   0.402  13.584   6.303  0.1485  0.1007  0.0050
    1DIPC   D2B 6982   0.749  13.413   6.374  0.1508  0.0761 -0.0528
    1DIPC   D3B 6983   0.829  13.401   5.950 -0.2091  0.5292  0.1330
    1DIPC   C4B 6984   0.859  13.774   5.713 -0.1418  0.3181  0.0908
    1DIPC   NC3 6985   4.008  10.247   7.112 -0.1848  0.0404 -0.0476
    1DIPC   PO4 6986   4.313  10.091   6.845  0.0763  0.3335  0.0923
    1DIPC   GL1 6987   4.483   9.965   6.463 -0.0753  0.1059  0.1376
    1DIPC   GL2 6988   4.885   9.814   6.443  0.2444  0.0136  0.1378
    1DIPC   C1A 6989   4.584   9.625   6.064 -0.0210 -0.1997 -0.0371
    1DIPC   D2A 6990   4.382   9.150   5.910 -0.0186  0.0400 -0.0262
    1DIPC   D3A 6991   4.124   8.855   6.177  0.2018  0.0563  0.0760
    1DIPC   C4A 6992   4.075   8.461   6.169 -0.0153  0.1716  0.0510
    1DIPC   C1B 6993   4.871  10.056   6.155 -0.1039 -0.1644 -0.1319
    1DIPC   D2B 6994   4.688  10.081   5.834 -0.1358 -0.0903 -0.0788
    1DIPC   D3B 6995   4.602  10.511   5.684 -0.1449  0.3099  0.1319
    1DIPC   C4B 6996   4.408  10.502   5.276 -0.1705  0.1404  0.1593
    1DIPC   NC3 6997  28.071  20.908   6.449 -0.2007  0.2665 -0.4802
    1DIPC   PO4 6998  27.607  20.800   6.501  0.1016  0.2313 -0.0981
    1DIPC   GL1 6999  27.663  20.745   6.061 -0.0132  0.0184 -0.1418
    1DIPC   GL2 7000  27.320  20.786   5.965  0.1765  0.1499 -0.2995
    1DIPC   C1A 7001  27.767  20.509   5.693 -0.3544  0.0138  0.0392
    1DIPC   D2A 7002  27.700  20.327   5.313  0.1228 -0.0406  0.1781
    1DIPC   D3A 7003  27.490  20.363   4.833 -0.1046 -0.2023 -0.1166
    1DIPC   C4A 7004  27.327  20.771   4.675 -0.1472 -0.3538 -0.0125
    1DIPC   C1B 7005  27.462  21.035   5.561 -0.2245  0.2294  0.1197
    1DIPC   D2B 7006  27.383  20.909   5.181 -0.0004 -0.1484 -0.2606
    1DIPC   D3B 7007  27.203  21.164   4.925 -0.1353 -0.0519  0.0259
    1DIPC   C4B 7008  26.843  21.041   4.633  0.0111 -0.4161 -0.0801
    1DIPC   NC3 7009   4.065   4.523   6.826 -0.1766 -0.0393  0.1811
    1DIPC   PO4 7010   4.030   4.797   6.502  0.0134  0.0047  0.0717
    1DIPC   GL1 7011   4.259   4.601   6.181 -0.0614  0.0461  0.0078
    1DIPC   GL2 7012   4.041   4.679   6.000 -0.3691 -0.0893 -0.2479
    1DIPC   C1A 7013   4.440   4.665   5.744 -0.1076  0.2534 -0.2599
    1DIPC   D2A 7014   4.626   4.850   5.363 -0.0652 -0.0748  0.0229
    1DIPC   D3A 7015   4.985   4.665   5.571  0.0140  0.0011  0.0806
    1DIPC   C4A 7016   5.213   4.283   5.416  0.1707  0.2423  0.1708
    1DIPC   C1B 7017   3.871   4.700   5.598 -0.0118  0.2792  0.0440
    1DIPC   D2B 7018   3.941   4.750   5.133 -0.2151 -0.0386  0.0563
    1DIPC   D3B 7019   4.177   4.478   5.199 -0.0983  0.1728 -0.1998
    1DIPC   C4B 7020   4.175   4.022   5.052 -0.2405  0.0124 -0.4118
    1DIPC   NC3 7021   1.225  19.364   6.414  0.1533 -0.2175  0.1712
    1DIPC   PO4 7022   0.706  19.488   6.455 -0.0426  0.1540  0.2069
    1DIPC   GL1 7023   0.829  19.478   6.034 -0.3364  0.3662 -0.3696
    1DIPC   GL2 7024   0.825  19.828   5.941 -0.2546 -0.1568 -0.1606
    1DIPC   C1A 7025   0.984  19.552   5.580 -0.1398 -0.0370  0.1197
    1DIPC   D2A 7026   1.285  19.796   5.264 -0.4286  0.1699  0.1189
    1DIPC   D3A 7027   1.378  19.425   5.088  0.0335  0.1245 -0.3303
    1DIPC   C4A 7028   1.676  19.306   4.855  0.0654 -0.0580  0.4117
    1DIPC   C1B 7029   1.244  19.933   5.707  0.0042  0.0052  0.4758
    1DIPC   D2B 7030   1.714  19.961   5.548  0.0090  0.0291  0.1237
    1DIPC   D3B 7031   1.544  20.323   5.465 -0.0607  0.0034  0.0331
    1DIPC   C4B 7032   1.366  20.368   5.099 -0.2641  0.1835  0.1520
    1DIPC   NC3 7033  16.088  18.177   6.013 -0.2444  0.1920  0.0859
    1DIPC   PO4 7034  15.753  18.033   5.758 -0.1899 -0.1044 -0.0866
    1DIPC   GL1 7035  15.571  17.958   5.477  0.1360  0.0811  0.1115
    1DIPC   GL2 7036  15.756  18.231   5.235  0.0532  0.1443 -0.1487
    1DIPC   C1A 7037  15.203  17.586   5.317 -0.1749 -0.0609 -0.0960
    1DIPC   D2A 7038  15.220  17.149   5.468  0.1022 -0.1406  0.0816
    1DIPC   D3A 7039  15.159  17.004   5.019  0.2536  0.0403 -0.1736
    1DIPC   C4A 7040  14.786  16.776   4.955  0.0214  0.2673 -0.0131
    1DIPC   C1B 7041  16.024  18.573   5.075 -0.0445 -0.1195 -0.2628
    1DIPC   D2B 7042  16.347  18.838   5.105  0.0927 -0.0665  0.2228
    1DIPC   D3B 7043  16.396  19.371   5.023 -0.1526 -0.1034 -0.2216
    1DIPC   C4B 7044  16.274  19.271   4.588  0.3185  0.1132  0.0637
    1DIPC   NC3 7045  19.313   1.378   7.760 -0.1135  0.4277 -0.0031
    1DIPC   PO4 7046  18.978   1.460   7.780  0.1102  0.1243 -0.1939
    1DIPC   GL1 7047  19.077   1.533   7.359  0.0850 -0.1015 -0.0502
    1DIPC   GL2 7048  19.050   1.225   7.237 -0.4362  0.2248 -0.1689
    1DIPC   C1A 7049  19.354   1.668   7.021  0.1051  0.3462 -0.0624
    1DIPC   D2A 7050  19.202   1.548   6.486 -0.0244  0.0046 -0.1280
    1DIPC   D3A 7051  19.464   1.728   6.308 -0.2585  0.0462 -0.0012
    1DIPC   C4A 7052  19.858   1.728   6.220 -0.0219  0.0348 -0.2182
    1DIPC   C1B 7053  19.277   1.193   6.966  0.0127  0.0980  0.0896
    1DIPC   D2B 7054  19.674   1.442   6.684 -0.5587 -0.1532  0.1486
    1DIPC   D3B 7055  19.654   1.226   6.271  0.1707  0.1697  0.2573
    1DIPC   C4B 7056  19.287   1.168   6.093  0.3695 -0.0127 -0.2188
    1DIPC   NC3 7057  22.781  22.809   6.579  0.0066 -0.2137  0.2334
    1DIPC   PO4 7058  22.516  23.140   6.495  0.0024  0.3276 -0.1571
    1DIPC   GL1 7059  22.690  23.301   6.236 -0.3383 -0.2013  0.3183
    1DIPC   GL2 7060  22.804  23.010   6.005  0.1048 -0.3209  0.0677
    1DIPC   C1A 7061  23.050  23.391   5.967  0.3795 -0.3353  0.0941
    1DIPC   D2A 7062  23.404  23.390   5.950  0.0380  0.1695 -0.1430
    1DIPC   D3A 7063  23.476  23.842   5.698  0.0764 -0.1054 -0.3133
    1DIPC   C4A 7064  23.188  24.257   5.739  0.0598  0.1459 -0.1458
    1DIPC   C1B 7065  23.013  22.973   5.691  0.1233  0.0313  0.0327
    1DIPC   D2B 7066  23.296  23.164   5.439 -0.2922 -0.0860 -0.0981
    1DIPC   D3B 7067  23.220  23.056   5.005 -0.2234 -0.1983  0.3014
    1DIPC   C4B 7068  23.605  22.993   4.769  0.2695 -0.0605  0.1246
    1DIPC   NC3 7069   0.639   2.732   7.115 -0.1732  0.0047 -0.2825
    1DIPC   PO4 7070   0.662   2.562   6.769 -0.0335  0.0208  0.1061
    1DIPC   GL1 7071   0.931   2.713   6.366 -0.1684  0.1769 -0.1003
    1DIPC   GL2 7072   1.282   2.727   6.442 -0.1436 -0.1634  0.0504
    1DIPC   C1A 7073   0.872   2.559   5.913  0.0327  0.0018 -0.2898
    1DIPC   D2A 7074   1.010   2.433   5.526 -0.0315 -0.3933  0.0673
    1DIPC   D3A 7075   0.654   2.334   5.144 -0.0562 -0.0038  0.3778
    1DIPC   C4A 7076   0.606   2.706   4.936  0.3696 -0.1549  0.0376
    1DIPC   C1B 7077   1.274   2.780   5.961 -0.2613 -0.0066  0.1130
    1DIPC   D2B 7078   1.581   2.605   5.669  0.0059  0.0322 -0.2638
    1DIPC   D3B 7079   1.534   2.487   5.234  0.3374 -0.0588  0.2173
    1DIPC   C4B 7080   1.142   2.647   5.060 -0.1475 -0.0738  0.1482
    1DIPC   NC3 7081  27.304   1.655   6.549  0.0052 -0.1286 -0.0884
    1DIPC   PO4 7082  26.900   1.778   6.538  0.1711  0.0963  0.0395
    1DIPC   GL1 7083  27.009   1.869   6.121 -0.1690  0.0475  0.0526
    1DIPC   GL2 7084  27.102   1.563   6.116  0.0559  0.1954 -0.1372
    1DIPC   C1A 7085  26.888   1.897   5.644 -0.3306 -0.2776 -0.3071
    1DIPC   D2A 7086  26.722   2.173   5.410  0.1974  0.1785 -0.1702
    1DIPC   D3A 7087  26.745   2.464   5.059  0.0672  0.0800  0.1633
    1DIPC   C4A 7088  26.578   2.791   5.288 -0.0236 -0.0012  0.1489
    1DIPC   C1B 7089  27.177   1.118   6.183 -0.5584  0.0399  0.2756
    1DIPC   D2B 7090  27.403   0.905   5.857 -0.1704  0.1231  0.3217
    1DIPC   D3B 7091  27.372   1.289   5.698  0.0823  0.2019 -0.1196
    1DIPC   C4B 7092  27.014   1.397   5.503 -0.1872 -0.0332 -0.0450
    1DIPC   NC3 7093  13.611  28.682   6.745 -0.0452  0.2257  0.0017
    1DIPC   PO4 7094  13.282  28.773   6.502  0.0604  0.3482 -0.0254
    1DIPC   GL1 7095  13.216  28.977   6.168  0.0403  0.1167 -0.0549
    1DIPC   GL2 7096  12.936  28.858   5.997 -0.1849 -0.0145 -0.1961
    1DIPC   C1A 7097  13.191  29.250   5.749  0.3035  0.0666 -0.0161
    1DIPC   D2A 7098  12.917  29.071   5.371  0.2344 -0.1279 -0.0470
    1DIPC   D3A 7099  12.530  28.879   5.562 -0.0184  0.0636 -0.1884
    1DIPC   C4A 7100  12.074  29.022   5.309 -0.0006 -0.0874 -0.3028
    1DIPC   C1B 7101  12.460  28.780   6.056  0.2360 -0.2626 -0.1410
    1DIPC   D2B 7102  12.132  28.576   5.917 -0.1644  0.1807  0.0140
    1DIPC   D3B 7103  12.137  28.507   5.431 -0.2720 -0.1678 -0.1198
    1DIPC   C4B 7104  11.831  28.475   5.159 -0.0303 -0.3119 -0.1516
    1DIPC   NC3 7105   8.848  25.388   6.269  0.1620  0.0170  0.1085
    1DIPC   PO4 7106   8.939  25.136   5.831  0.2641 -0.0680  0.2042
    1DIPC   GL1 7107   8.861  25.272   5.377  0.0440 -0.0417 -0.2448
    1DIPC   GL2 7108   9.163  25.330   5.196 -0.0701  0.0885  0.0474
    1DIPC   C1A 7109   8.647  25.562   5.296  0.2664 -0.0974 -0.0061
    1DIPC   D2A 7110   8.497  25.733   4.943 -0.3104  0.2248 -0.0349
    1DIPC   D3A 7111   8.570  25.676   4.484  0.1078  0.1842  0.2422
    1DIPC   C4A 7112   8.699  25.937   4.179  0.4673  0.0334 -0.0924
    1DIPC   C1B 7113   9.026  25.598   4.705  0.0264  0.1550 -0.5017
    1DIPC   D2B 7114   9.137  25.735   4.292 -0.2064  0.0238  0.1336
    1DIPC   D3B 7115   9.506  25.809   4.256  0.2330 -0.0415  0.1833
    1DIPC   C4B 7116   9.753  25.861   4.596  0.1924 -0.1032  0.1147
    1DIPC   NC3 7117   3.005  11.899   6.198 -0.0393  0.3446  0.5025
    1DIPC   PO4 7118   3.008  11.404   6.238 -0.1369 -0.1834  0.4694
    1DIPC   GL1 7119   2.958  11.611   5.792  0.3228 -0.0943  0.0913
    1DIPC   GL2 7120   2.621  11.787   5.802  0.1554 -0.0711 -0.0113
    1DIPC   C1A 7121   2.963  11.937   5.415 -0.4501  0.1170  0.1527
    1DIPC   D2A 7122   2.765  12.255   5.576 -0.1383  0.2984  0.0158
    1DIPC   D3A 7123   2.667  12.723   5.551 -0.5020 -0.1569 -0.1347
    1DIPC   C4A 7124   2.906  12.955   5.435 -0.1903  0.1536  0.1244
    1DIPC   C1B 7125   2.451  11.872   5.420  0.2480 -0.3106 -0.0081
    1DIPC   D2B 7126   2.505  11.789   5.016  0.2403  0.1141  0.2321
    1DIPC   D3B 7127   2.701  11.621   4.728  0.3001 -0.2319  0.2107
    1DIPC   C4B 7128   2.437  11.561   4.420  0.3558  0.3049  0.0532
    1DIPC   NC3 7129  23.848  17.157   6.812  0.0906 -0.0070 -0.0201
    1DIPC   PO4 7130  24.133  16.817   6.799 -0.1014  0.1237 -0.1452
    1DIPC   GL1 7131  24.273  16.659   6.362 -0.1132  0.0217 -0.0834
    1DIPC   GL2 7132  24.288  16.767   6.097  0.0961  0.1263  0.4506
    1DIPC   C1A 7133  24.412  16.273   6.141 -0.1203  0.2178  0.1329
    1DIPC   D2A 7134  24.430  16.209   5.681  0.0520 -0.1619 -0.2662
    1DIPC   D3A 7135  24.161  16.459   5.541 -0.0596  0.1759 -0.2789
    1DIPC   C4A 7136  24.001  16.528   5.117 -0.0141 -0.2671  0.1645
    1DIPC   C1B 7137  23.978  16.506   5.963  0.0671  0.0511 -0.5080
    1DIPC   D2B 7138  23.512  16.475   5.974 -0.0129 -0.2803  0.0883
    1DIPC   D3B 7139  23.622  16.545   5.495  0.0341  0.0632 -0.3040
    1DIPC   C4B 7140  23.408  16.891   5.368  0.1335  0.2556  0.0052
    1DIPC   NC3 7141  27.429  21.112   6.870 -0.0670  0.2421 -0.0979
    1DIPC   PO4 7142  27.640  21.428   6.704  0.0846 -0.1204 -0.2384
    1DIPC   GL1 7143  27.398  21.551   6.217 -0.0593  0.3937 -0.2313
    1DIPC   GL2 7144  27.263  21.938   6.112  0.0798 -0.2169  0.0277
    1DIPC   C1A 7145  27.160  21.403   5.815  0.4472  0.0118  0.1803
    1DIPC   D2A 7146  26.993  21.134   5.398  0.0776  0.0289 -0.2238
    1DIPC   D3A 7147  26.911  20.843   5.623  0.0988  0.1015  0.0013
    1DIPC   C4A 7148  26.762  20.960   6.012  0.2683 -0.0453  0.1540
    1DIPC   C1B 7149  27.294  21.838   5.663  0.4073 -0.3654  0.2804
    1DIPC   D2B 7150  27.443  21.968   5.362 -0.0106 -0.1759 -0.2652
    1DIPC   D3B 7151  27.911  21.804   5.261 -0.2730  0.2002  0.0292
    1DIPC   C4B 7152  28.234  21.937   4.962  0.0931  0.1036  0.1894
    1DIPC   NC3 7153  13.092   8.158   7.847  0.1691 -0.3177 -0.2787
    1DIPC   PO4 7154  12.675   8.120   7.857  0.3394  0.2869  0.0921
    1DIPC   GL1 7155  12.818   7.964   7.444  0.1500 -0.2295  0.1960
    1DIPC   GL2 7156  13.067   8.106   7.322  0.1859  0.0058  0.0266
    1DIPC   C1A 7157  12.790   7.798   7.077  0.2517  0.2967 -0.0593
    1DIPC   D2A 7158  12.735   7.574   6.771  0.2082  0.0572  0.2858
    1DIPC   D3A 7159  12.976   7.782   6.396 -0.0118  0.0302 -0.0830
    1DIPC   C4A 7160  12.892   7.630   5.968  0.0686 -0.2727  0.2611
    1DIPC   C1B 7161  13.169   8.079   6.856  0.0558 -0.3220 -0.1476
    1DIPC   D2B 7162  13.250   8.393   6.431 -0.2499  0.0483  0.3971
    1DIPC   D3B 7163  13.182   8.105   6.133  0.1002 -0.0108 -0.1537
    1DIPC   C4B 7164  13.447   7.766   6.273  0.1250  0.0300  0.1188
    1DIPC   NC3 7165   4.386   6.939   6.716 -0.1182 -0.0225  0.0891
    1DIPC   PO4 7166   3.987   6.777   6.654  0.1235 -0.0701  0.0643
    1DIPC   GL1 7167   4.180   6.902   6.166  0.0886  0.0327  0.0557
    1DIPC   GL2 7168   4.280   7.221   6.269  0.1225 -0.0274  0.0733
    1DIPC   C1A 7169   4.155   6.950   5.730  0.1364 -0.0866 -0.5148
    1DIPC   D2A 7170   4.070   7.011   5.170  0.0805 -0.2335  0.1615
    1DIPC   D3A 7171   3.898   7.513   5.103  0.3776  0.1197  0.2712
    1DIPC   C4A 7172   3.910   7.740   4.712  0.0404 -0.1688  0.1628
    1DIPC   C1B 7173   4.151   7.643   5.915 -0.1159  0.0527  0.0131
    1DIPC   D2B 7174   3.920   7.884   5.657  0.0728 -0.1873  0.1275
    1DIPC   D3B 7175   3.562   8.054   5.428  0.2138  0.0891  0.2460
    1DIPC   C4B 7176   3.660   8.075   4.932 -0.0918  0.0805 -0.1863
    1DIPC   NC3 7177   3.718   1.643   6.480 -0.0911 -0.4062  0.0988
    1DIPC   PO4 7178   4.000   1.352   6.511 -0.1973 -0.1222 -0.0691
    1DIPC   GL1 7179   4.009   1.469   6.056 -0.2864 -0.0306  0.1852
    1DIPC   GL2 7180   4.041   1.751   5.957 -0.1925  0.1702 -0.1696
    1DIPC   C1A 7181   3.941   1.446   5.545 -0.2198  0.1973  0.0090
    1DIPC   D2A 7182   3.770   1.463   5.126  0.1355 -0.1410  0.2035
    1DIPC   D3A 7183   3.999   1.176   4.761  0.0816 -0.0723 -0.1828
    1DIPC   C4A 7184   3.986   0.819   4.592 -0.0328 -0.0744 -0.2178
    1DIPC   C1B 7185   4.089   2.155   5.805  0.0279  0.0553 -0.1008
    1DIPC   D2B 7186   4.359   2.248   5.419  0.1313 -0.1504 -0.0317
    1DIPC   D3B 7187   4.212   2.094   5.072 -0.3254  0.1598  0.0218
    1DIPC   C4B 7188   3.983   2.071   4.744  0.0644 -0.0163  0.2983
    1DIPC   NC3 7189  17.123  20.058   6.144 -0.1168  0.0202 -0.2458
    1DIPC   PO4 7190  17.380  19.725   5.804 -0.1458 -0.1528 -0.3673
    1DIPC   GL1 7191  17.336  19.868   5.379  0.1069 -0.0781  0.0458
    1DIPC   GL2 7192  17.342  19.475   5.326  0.2248  0.3826 -0.0928
    1DIPC   C1A 7193  17.396  20.085   5.000 -0.1317 -0.0378  0.2004
    1DIPC   D2A 7194  17.321  19.988   4.579  0.1201  0.1242  0.1355
    1DIPC   D3A 7195  17.361  20.042   4.135 -0.1421  0.0810  0.0161
    1DIPC   C4A 7196  17.439  19.712   3.899 -0.1286  0.0093 -0.1415
    1DIPC   C1B 7197  17.496  19.547   4.884 -0.1395  0.0628  0.0017
    1DIPC   D2B 7198  17.701  19.672   4.495  0.1532 -0.0405  0.0616
    1DIPC   D3B 7199  17.756  19.253   4.371  0.3003 -0.4144  0.1448
    1DIPC   C4B 7200  17.941  18.906   4.617 -0.0143  0.0972  0.1192
    1DIPC   NC3 7201   4.256  11.526   6.305 -0.3364 -0.2731  0.0992
    1DIPC   PO4 7202   4.169  11.158   6.123  0.1369  0.3782 -0.2140
    1DIPC   GL1 7203   4.194  10.974   5.764  0.1788  0.0953  0.0521
    1DIPC   GL2 7204   4.552  10.958   5.412  0.3874 -0.0800 -0.4223
    1DIPC   C1A 7205   3.937  10.868   5.478 -0.2942  0.1655 -0.0765
    1DIPC   D2A 7206   3.869  10.728   5.043 -0.0305  0.3675 -0.0012
    1DIPC   D3A 7207   4.022  10.905   4.779  0.2287  0.2197 -0.4903
    1DIPC   C4A 7208   3.908  11.135   4.354  0.0614 -0.0367  0.0632
    1DIPC   C1B 7209   4.521  10.831   4.930  0.0260 -0.2146 -0.1307
    1DIPC   D2B 7210   4.371  10.473   4.652  0.1512 -0.2172  0.0819
    1DIPC   D3B 7211   4.394  10.841   4.329 -0.2966 -0.1278  0.0374
    1DIPC   C4B 7212   4.753  10.994   4.175  0.3254  0.0998  0.0513
    1DIPC   NC3 7213  28.943  11.694   6.822  0.1220  0.1632 -0.2044
    1DIPC   PO4 7214  28.574  11.881   6.661 -0.1205  0.1590 -0.2353
    1DIPC   GL1 7215  28.563  12.097   6.158 -0.1529  0.0619 -0.0219
    1DIPC   GL2 7216  28.841  12.374   6.141  0.0876 -0.0736  0.0538
    1DIPC   C1A 7217  28.495  12.067   5.657 -0.1552  0.1050 -0.1016
    1DIPC   D2A 7218  28.750  12.213   5.427 -0.1488  0.4408 -0.0383
    1DIPC   D3A 7219  28.897  12.133   4.902 -0.1937  0.1478 -0.1084
    1DIPC   C4A 7220  28.522  11.927   4.741  0.0765  0.2496  0.1795
    1DIPC   C1B 7221  28.823  12.664   5.827  0.2801 -0.2779  0.0538
    1DIPC   D2B 7222  28.658  13.048   5.507 -0.0673  0.1132  0.1250
    1DIPC   D3B 7223  28.183  13.120   5.362  0.3301 -0.0001  0.0281
    1DIPC   C4B 7224  27.855  13.411   5.470  0.3790 -0.2478  0.1119
    1DIPC   NC3 7225   1.660  18.059   6.529 -0.2201 -0.0779  0.0811
    1DIPC   PO4 7226   2.073  18.332   6.351 -0.2112 -0.0492  0.0347
    1DIPC   GL1 7227   2.170  18.674   6.165 -0.1336  0.3474 -0.1920
    1DIPC   GL2 7228   2.254  18.991   6.223 -0.2738  0.0821 -0.0928
    1DIPC   C1A 7229   2.363  18.682   5.716  0.1244  0.2451 -0.1112
    1DIPC   D2A 7230   2.578  18.511   5.402  0.3737 -0.0190  0.0040
    1DIPC   D3A 7231   2.897  18.469   5.130 -0.2725 -0.0978 -0.1232
    1DIPC   C4A 7232   3.090  18.812   4.871  0.2860  0.0146  0.2680
    1DIPC   C1B 7233   2.498  19.266   6.049  0.4792  0.1568 -0.0607
    1DIPC   D2B 7234   2.611  19.281   5.727  0.0411  0.1865 -0.0215
    1DIPC   D3B 7235   2.412  19.080   5.346 -0.4576 -0.0784 -0.3159
    1DIPC   C4B 7236   2.258  19.328   4.972 -0.1870  0.0851 -0.0828
    1DIPC   NC3 7237  12.446  25.914   6.056  0.1795  0.0916  0.0713
    1DIPC   PO4 7238  12.473  26.211   5.885  0.1521  0.0358  0.0322
    1DIPC   GL1 7239  12.592  26.002   5.514 -0.1000  0.0445 -0.3914
    1DIPC   GL2 7240  12.889  25.914   5.401 -0.0128 -0.2691 -0.0144
    1DIPC   C1A 7241  12.417  26.038   5.100 -0.0988  0.0121 -0.1180
    1DIPC   D2A 7242  12.277  26.243   4.718  0.3436  0.1321 -0.2967
    1DIPC   D3A 7243  12.501  26.052   4.346 -0.1225  0.0950 -0.0148
    1DIPC   C4A 7244  12.877  25.972   4.067  0.0448 -0.1047 -0.1029
    1DIPC   C1B 7245  12.838  25.765   4.937  0.1929 -0.2902 -0.1130
    1DIPC   D2B 7246  12.859  25.635   4.455  0.1688  0.3753 -0.0691
    1DIPC   D3B 7247  12.413  25.372   4.309 -0.0731  0.1028 -0.0587
    1DIPC   C4B 7248  12.328  25.043   4.589  0.0837 -0.1207 -0.3169
    1DIPC   NC3 7249   6.670   7.804   6.532  0.0499 -0.0663 -0.0337
    1DIPC   PO4 7250   6.501   7.471   6.374  0.0621  0.0687 -0.0674
    1DIPC   GL1 7251   6.418   7.302   5.992  0.0306 -0.2678  0.3800
    1DIPC   GL2 7252   6.696   7.165   5.992  0.5486 -0.0438 -0.0615
    1DIPC   C1A 7253   6.309   7.416   5.598  0.2012  0.5358  0.1120
    1DIPC   D2A 7254   6.310   7.741   5.246  0.1304 -0.2804  0.0672
    1DIPC   D3A 7255   6.650   7.620   4.969 -0.1089 -0.2750  0.0071
    1DIPC   C4A 7256   6.890   7.907   4.773  0.0831  0.3938  0.1708
    1DIPC   C1B 7257   6.813   7.099   5.600 -0.1939  0.0743  0.2396
    1DIPC   D2B 7258   7.154   7.180   5.382  0.1230 -0.0460  0.3713
    1DIPC   D3B 7259   6.890   7.245   5.088 -0.1285  0.3558 -0.0144
    1DIPC   C4B 7260   6.483   7.250   5.214 -0.1499  0.2028 -0.1170
    1DIPC   NC3 7261  12.154  23.315   5.302  0.3674  0.3489  0.1345
    1DIPC   PO4 7262  11.716  23.371   5.376 -0.2465 -0.1307  0.0554
    1DIPC   GL1 7263  11.506  23.363   5.011  0.1254 -0.0013  0.0263
    1DIPC   GL2 7264  11.489  23.056   4.963 -0.0889 -0.1789  0.0913
    1DIPC   C1A 7265  11.675  23.569   4.678  0.0919 -0.2705 -0.0808
    1DIPC   D2A 7266  11.832  23.841   4.321  0.1900  0.1903  0.0284
    1DIPC   D3A 7267  11.734  23.452   4.161  0.1892 -0.1493  0.1640
    1DIPC   C4A 7268  11.707  23.451   3.680  0.0059  0.1442  0.4597
    1DIPC   C1B 7269  11.562  23.068   4.496 -0.0992  0.1413 -0.0091
    1DIPC   D2B 7270  11.552  22.736   4.185 -0.0691 -0.0298  0.0762
    1DIPC   D3B 7271  11.656  22.304   4.470  0.1556 -0.0688 -0.0366
    1DIPC   C4B 7272  11.489  22.004   4.756 -0.1256  0.2052  0.0659
    1DIPC   NC3 7273  14.124  17.081   5.990  0.0339  0.0643 -0.0623
    1DIPC   PO4 7274  14.109  17.385   6.168  0.0071  0.0117 -0.1552
    1DIPC   GL1 7275  14.164  17.554   5.691 -0.0937 -0.1583  0.1203
    1DIPC   GL2 7276  14.131  17.326   5.512 -0.0040 -0.0708  0.0610
    1DIPC   C1A 7277  14.318  17.680   5.269  0.0388 -0.3564  0.0490
    1DIPC   D2A 7278  14.197  17.550   4.863 -0.1602  0.3281  0.0893
    1DIPC   D3A 7279  14.185  17.860   4.574 -0.2229 -0.0992  0.1722
    1DIPC   C4A 7280  14.019  17.992   4.211  0.2931  0.0701 -0.0122
    1DIPC   C1B 7281  14.004  17.150   5.125  0.1692  0.1423  0.0110
    1DIPC   D2B 7282  13.803  16.879   4.909 -0.0361 -0.0369 -0.1413
    1DIPC   D3B 7283  14.104  16.662   5.109 -0.1690 -0.0752  0.0304
    1DIPC   C4B 7284  14.387  16.449   4.759 -0.1953  0.0086 -0.0288
    1DIPC   NC3 7285  27.387  24.868   6.222 -0.0400 -0.0998  0.0047
    1DIPC   PO4 7286  27.018  24.782   6.521  0.3241  0.1130  0.3039
    1DIPC   GL1 7287  26.851  24.721   6.071 -0.0798  0.0852 -0.1894
    1DIPC   GL2 7288  26.553  24.452   5.988 -0.0375 -0.2478 -0.0923
    1DIPC   C1A 7289  26.949  24.464   5.717 -0.2449 -0.1323 -0.0792
    1DIPC   D2A 7290  27.010  24.621   5.249  0.1460 -0.2334 -0.1683
    1DIPC   D3A 7291  27.065  24.686   4.775 -0.0744  0.0982 -0.3328
    1DIPC   C4A 7292  27.406  24.634   4.511 -0.0288  0.2908 -0.0895
    1DIPC   C1B 7293  26.395  24.175   5.677  0.1875  0.1763  0.0032
    1DIPC   D2B 7294  26.238  23.985   5.316 -0.0749 -0.2711 -0.0244
    1DIPC   D3B 7295  26.515  23.630   5.160 -0.1444 -0.0910 -0.0953
    1DIPC   C4B 7296  26.877  23.790   4.965 -0.1350  0.0634 -0.0282
    1DIPC   NC3 7297  15.647  16.733   5.950 -0.3798 -0.1686  0.1150
    1DIPC   PO4 7298  15.977  16.812   6.195 -0.1234 -0.5947  0.2350
    1DIPC   GL1 7299  16.153  16.835   5.777 -0.0135  0.2736 -0.0353
    1DIPC   GL2 7300  15.961  16.976   5.550  0.1292 -0.3299 -0.3583
    1DIPC   C1A 7301  16.396  16.808   5.305 -0.1160  0.0798 -0.0310
    1DIPC   D2A 7302  16.821  17.177   5.215  0.0823 -0.2413 -0.2542
    1DIPC   D3A 7303  16.645  17.072   4.750 -0.0634  0.1433  0.0062
    1DIPC   C4A 7304  16.928  17.003   4.461 -0.0439  0.1589 -0.0172
    1DIPC   C1B 7305  16.009  17.070   5.212  0.0413  0.0374 -0.2244
    1DIPC   D2B 7306  16.166  17.184   4.870  0.0276  0.2375  0.1994
    1DIPC   D3B 7307  15.979  17.473   4.678  0.2528 -0.0433  0.0611
    1DIPC   C4B 7308  15.968  17.484   4.235  0.3526  0.2390 -0.2950
    1DIPC   NC3 7309  11.380  11.344   6.906  0.1140  0.4779 -0.0630
    1DIPC   PO4 7310  11.389  10.946   6.617  0.3000  0.3441  0.1092
    1DIPC   GL1 7311  11.468  11.168   6.291  0.2329 -0.1549 -0.0273
    1DIPC   GL2 7312  11.817  11.301   6.216  0.2880  0.0687 -0.1468
    1DIPC   C1A 7313  11.361  11.396   5.952 -0.3746  0.2001  0.5335
    1DIPC   D2A 7314  11.332  11.313   5.559 -0.0861  0.1928 -0.0027
    1DIPC   D3A 7315  11.544  11.707   5.243 -0.1610  0.3084 -0.3515
    1DIPC   C4A 7316  11.422  11.615   4.753  0.1189  0.1503  0.3554
    1DIPC   C1B 7317  11.868  11.541   5.848 -0.1290 -0.0769  0.2486
    1DIPC   D2B 7318  12.004  11.621   5.351  0.3811 -0.0103 -0.1425
    1DIPC   D3B 7319  11.827  11.425   4.943 -0.1505 -0.1596 -0.0265
    1DIPC   C4B 7320  11.464  11.149   4.987  0.2322  0.0525 -0.2180
    1DIPC   NC3 7321  20.736   0.060   7.379 -0.1735 -0.0209 -0.1259
    1DIPC   PO4 7322  20.872   0.025   6.913 -0.2813 -0.0522 -0.0725
    1DIPC   GL1 7323  20.844   0.024   6.502 -0.0481 -0.1669 -0.0205
    1DIPC   GL2 7324  20.703  29.630   6.436  0.0516  0.0931 -0.1028
    1DIPC   C1A 7325  20.418   0.204   6.317  0.1777 -0.2225 -0.0925
    1DIPC   D2A 7326  20.455   0.566   6.472  0.0095  0.0034  0.1527
    1DIPC   D3A 7327  20.810   0.497   6.793  0.2596 -0.3798  0.0976
    1DIPC   C4A 7328  21.306   0.643   6.888 -0.1038  0.4086 -0.2531
    1DIPC   C1B 7329  20.759  29.798   6.047  0.2696 -0.1351  0.0433
    1DIPC   D2B 7330  20.974  29.649   5.673 -0.0242 -0.0436  0.1574
    1DIPC   D3B 7331  20.737  29.707   5.328  0.1036  0.2489 -0.3580
    1DIPC   C4B 7332  20.552   0.155   5.095 -0.2082 -0.1488 -0.0537
    1DIPC   NC3 7333  17.256  19.257   5.812 -0.0765  0.2888 -0.0779
    1DIPC   PO4 7334  17.225  18.753   5.763  0.5290 -0.1723 -0.0855
    1DIPC   GL1 7335  16.842  18.781   5.581 -0.2878  0.0924 -0.5774
    1DIPC   GL2 7336  16.845  19.070   5.446 -0.2642 -0.5812  0.0674
    1DIPC   C1A 7337  16.594  18.448   5.292  0.1047 -0.0378 -0.0053
    1DIPC   D2A 7338  16.484  18.374   4.880  0.0867  0.2776  0.1791
    1DIPC   D3A 7339  16.426  18.736   4.592 -0.1708 -0.0782  0.0340
    1DIPC   C4A 7340  16.313  18.564   4.176  0.5270  0.0524 -0.1878
    1DIPC   C1B 7341  16.796  18.902   5.013 -0.0720  0.1960  0.0456
    1DIPC   D2B 7342  16.800  19.107   4.667 -0.0306  0.2011 -0.0684
    1DIPC   D3B 7343  17.271  19.050   4.812 -0.0903  0.0457  0.4020
    1DIPC   C4B 7344  17.419  18.926   4.447 -0.4483 -0.1524 -0.1017
    1DIPC   NC3 7345   8.776   1.207   7.472 -0.2818  0.2259 -0.0935
    1DIPC   PO4 7346   8.592   1.134   7.043  0.2379 -0.0970 -0.1025
    1DIPC   GL1 7347   8.853   1.166   6.684  0.1803 -0.0133 -0.2901
    1DIPC   GL2 7348   8.657   1.222   6.493  0.0594 -0.1088  0.5347
    1DIPC   C1A 7349   9.035   1.342   6.210 -0.2588  0.0139  0.1958
    1DIPC   D2A 7350   9.226   1.329   5.735 -0.1398  0.1124 -0.0305
    1DIPC   D3A 7351   8.960   1.550   5.370 -0.1331  0.2504  0.0695
    1DIPC   C4A 7352   8.613   1.608   5.552  0.1295 -0.3550  0.1537
    1DIPC   C1B 7353   8.294   1.184   6.089 -0.2200 -0.1375  0.0661
    1DIPC   D2B 7354   8.258   0.770   5.849 -0.0383  0.1490  0.2564
    1DIPC   D3B 7355   8.146   1.212   5.565  0.2407  0.0149 -0.0462
    1DIPC   C4B 7356   8.461   1.249   5.171 -0.3222 -0.0908 -0.1008
    1DIPC   NC3 7357  23.257   0.157   7.733 -0.2118 -0.3099  0.1617
    1DIPC   PO4 7358  23.278   0.544   7.473 -0.0952  0.2031 -0.3355
    1DIPC   GL1 7359  23.308   0.765   7.105 -0.1723 -0.3841  0.1118
    1DIPC   GL2 7360  23.042   0.591   6.964 -0.1359 -0.2035  0.0707
    1DIPC   C1A 7361  23.253   0.876   6.581  0.0727 -0.2077 -0.1152
    1DIPC   D2A 7362  22.962   1.158   6.349  0.1103  0.0616  0.0627
    1DIPC   D3A 7363  23.202   1.333   6.076 -0.4777 -0.1102  0.0474
    1DIPC   C4A 7364  23.157   1.267   5.600  0.0877  0.0955 -0.1005
    1DIPC   C1B 7365  23.283   0.358   6.679  0.1364 -0.0372 -0.0377
    1DIPC   D2B 7366  23.413   0.129   6.356 -0.3147 -0.0537 -0.4205
    1DIPC   D3B 7367  23.074  29.816   6.479  0.0316 -0.0767 -0.0148
    1DIPC   C4B 7368  22.786   0.309   6.690  0.1331  0.2421 -0.0189
    1DIPC   NC3 7369  16.289  24.722   5.715 -0.2641  0.1952  0.4498
    1DIPC   PO4 7370  16.493  25.028   5.546  0.0685 -0.1157 -0.0709
    1DIPC   GL1 7371  16.637  25.015   5.036  0.2875 -0.0352  0.0762
    1DIPC   GL2 7372  16.514  25.291   5.020  0.2120 -0.0822  0.0203
    1DIPC   C1A 7373  16.638  24.758   4.640  0.0443 -0.0210  0.2081
    1DIPC   D2A 7374  16.800  24.421   4.461  0.1462 -0.4613  0.1212
    1DIPC   D3A 7375  16.509  24.255   4.145 -0.4923 -0.1594  0.3276
    1DIPC   C4A 7376  16.454  24.491   3.823  0.1393 -0.0363 -0.0437
    1DIPC   C1B 7377  16.807  25.358   4.670  0.0377  0.1053  0.0183
    1DIPC   D2B 7378  17.183  25.349   4.411  0.0760 -0.0916  0.0420
    1DIPC   D3B 7379  16.767  25.102   4.194  0.0680 -0.1043  0.0802
    1DIPC   C4B 7380  16.882  24.703   4.079 -0.2228  0.1882  0.1825
    1DIPC   NC3 7381   7.522  12.690   6.565  0.0206  0.0243  0.1495
    1DIPC   PO4 7382   7.180  12.523   6.271 -0.0659  0.0589 -0.1333
    1DIPC   GL1 7383   7.243  12.777   5.871 -0.0425  0.1280 -0.2019
    1DIPC   GL2 7384   7.501  12.806   5.785 -0.0151  0.0926  0.1728
    1DIPC   C1A 7385   6.906  12.979   5.689  0.0845 -0.1936 -0.2117
    1DIPC   D2A 7386   6.615  13.047   5.444 -0.0319  0.0315  0.1623
    1DIPC   D3A 7387   6.803  12.739   5.254 -0.0956 -0.0695 -0.0874
    1DIPC   C4A 7388   7.271  12.627   5.362  0.0049  0.3087 -0.0655
    1DIPC   C1B 7389   7.536  12.379   5.726 -0.0351  0.2390  0.1634
    1DIPC   D2B 7390   7.371  11.961   5.546 -0.0893  0.2351  0.2548
    1DIPC   D3B 7391   6.927  12.219   5.424 -0.0227 -0.3726  0.2262
    1DIPC   C4B 7392   6.760  12.069   5.016  0.1086 -0.0706  0.4018
    1DIPC   NC3 7393  15.925  29.796   7.264 -0.0975  0.0937 -0.1641
    1DIPC   PO4 7394  15.677  29.423   7.032 -0.0520 -0.1744 -0.1235
    1DIPC   GL1 7395  15.580  29.378   6.632  0.1698 -0.1422 -0.0547
    1DIPC   GL2 7396  15.299  29.620   6.616 -0.3316  0.1741  0.0741
    1DIPC   C1A 7397  15.486  29.434   6.198  0.0977 -0.3161 -0.3674
    1DIPC   D2A 7398  15.654  29.599   5.783  0.2478  0.0721  0.2745
    1DIPC   D3A 7399  15.338  29.743   5.518  0.2897  0.0664 -0.0744
    1DIPC   C4A 7400  14.996  29.756   5.557  0.4468  0.1207  0.0255
    1DIPC   C1B 7401  15.722  29.796   6.439 -0.3144 -0.1628 -0.0817
    1DIPC   D2B 7402  15.930   0.144   6.025  0.0863  0.5063 -0.2535
    1DIPC   D3B 7403  16.370   0.038   5.956 -0.1715  0.1266  0.0088
    1DIPC   C4B 7404  16.438  29.493   6.060  0.1583 -0.2093  0.1835
    1DIPC   NC3 7405  11.272  24.128   6.683 -0.2838  0.0129  0.2556
    1DIPC   PO4 7406  11.611  24.251   6.287  0.1807  0.4381 -0.1693
    1DIPC   GL1 7407  11.895  24.462   5.902  0.1374 -0.1401 -0.3579
    1DIPC   GL2 7408  11.833  24.347   5.508  0.2115 -0.0457 -0.3255
    1DIPC   C1A 7409  12.218  24.641   5.676 -0.0031 -0.1745  0.0507
    1DIPC   D2A 7410  12.241  24.723   5.239 -0.0407 -0.1609  0.1471
    1DIPC   D3A 7411  11.880  24.889   5.414 -0.0506  0.1979 -0.2884
    1DIPC   C4A 7412  11.754  25.343   5.308  0.2493  0.1729 -0.0788
    1DIPC   C1B 7413  12.064  24.252   5.143 -0.2254  0.1398 -0.1588
    1DIPC   D2B 7414  11.971  24.450   4.762  0.1212 -0.0334  0.0505
    1DIPC   D3B 7415  11.595  24.507   4.954 -0.0151 -0.2194 -0.1570
    1DIPC   C4B 7416  11.410  24.722   4.647 -0.0395  0.2399 -0.2283
    1DIPC   NC3 7417   0.834   4.756   6.738  0.0652  0.2157  0.1940
    1DIPC   PO4 7418   0.397   4.982   6.706  0.1766  0.0841  0.0694
    1DIPC   GL1 7419   0.278   4.744   6.437 -0.2028 -0.1853 -0.1564
    1DIPC   GL2 7420   0.535   4.612   6.341 -0.1755 -0.0073  0.1627
    1DIPC   C1A 7421  29.803   4.682   6.254 -0.1111 -0.0657  0.0036
    1DIPC   D2A 7422  29.499   4.586   5.998  0.0254 -0.0580  0.0374
    1DIPC   D3A 7423  29.747   4.097   5.800 -0.1173  0.1911 -0.2618
    1DIPC   C4A 7424  29.595   3.678   5.847 -0.0494  0.2098 -0.1392
    1DIPC   C1B 7425   0.374   4.881   5.945 -0.0003  0.2943 -0.2787
    1DIPC   D2B 7426   0.562   4.858   5.516  0.0830 -0.0294  0.0500
    1DIPC   D3B 7427   1.018   4.761   5.430 -0.1649  0.0449 -0.1966
    1DIPC   C4B 7428   1.164   4.860   4.986  0.0348 -0.1481 -0.1222
    1DIPC   NC3 7429   8.893  12.580   6.639  0.2119 -0.0206 -0.4274
    1DIPC   PO4 7430   9.210  12.689   6.294  0.1424 -0.1920 -0.0422
    1DIPC   GL1 7431   9.118  12.754   5.810  0.0330 -0.1235 -0.0900
    1DIPC   GL2 7432   9.233  13.061   5.522  0.1886 -0.1778  0.0212
    1DIPC   C1A 7433   8.855  12.550   5.493  0.1106  0.0063 -0.0754
    1DIPC   D2A 7434   9.044  12.232   5.166 -0.1109 -0.1666  0.0185
    1DIPC   D3A 7435   8.584  12.261   5.177 -0.0359 -0.0628  0.1787
    1DIPC   C4A 7436   8.317  12.055   4.829 -0.2730 -0.0349  0.2448
    1DIPC   C1B 7437   8.881  13.048   5.192  0.2201 -0.1105 -0.2143
    1DIPC   D2B 7438   8.599  13.146   4.857  0.1601 -0.1985 -0.0042
    1DIPC   D3B 7439   8.678  13.352   4.456  0.1743  0.0924  0.1685
    1DIPC   C4B 7440   9.084  13.511   4.463  0.2119 -0.0415  0.1324
    1DIPC   NC3 7441  14.891  19.100   5.706 -0.1938 -0.1797  0.1991
    1DIPC   PO4 7442  15.271  18.999   5.571  0.0786 -0.0962  0.2137
    1DIPC   GL1 7443  15.030  18.760   5.353  0.0026 -0.1685  0.1827
    1DIPC   GL2 7444  14.820  18.948   5.204  0.0603  0.3122 -0.1434
    1DIPC   C1A 7445  15.023  18.539   4.939  0.1623  0.2160 -0.1042
    1DIPC   D2A 7446  14.819  18.286   4.732  0.0634 -0.0908 -0.0428
    1DIPC   D3A 7447  14.943  18.546   4.406  0.1269  0.1065 -0.2147
    1DIPC   C4A 7448  14.730  18.471   4.162 -0.0930 -0.0569  0.1590
    1DIPC   C1B 7449  14.454  19.160   4.972 -0.2878 -0.0018 -0.1737
    1DIPC   D2B 7450  14.171  19.361   5.195  0.0637 -0.0916 -0.0760
    1DIPC   D3B 7451  13.976  19.313   4.760  0.0835  0.2058 -0.2004
    1DIPC   C4B 7452  13.953  18.985   4.560 -0.1378  0.0350  0.2631
    1DIPC   NC3 7453  10.408   4.628   7.392  0.4120  0.2899 -0.3361
    1DIPC   PO4 7454   9.951   4.850   7.280 -0.0237  0.0722  0.0332
    1DIPC   GL1 7455   9.853   4.917   6.946  0.0704  0.1829  0.0735
    1DIPC   GL2 7456   9.580   5.044   6.756  0.1297  0.1992 -0.1841
    1DIPC   C1A 7457   9.963   4.872   6.449 -0.0176  0.4140 -0.0412
    1DIPC   D2A 7458   9.762   4.823   6.120 -0.2864  0.0199 -0.0932
    1DIPC   D3A 7459   9.314   4.817   5.863 -0.1163 -0.2243  0.0331
    1DIPC   C4A 7460   9.173   4.472   5.614 -0.0367 -0.0469 -0.2471
    1DIPC   C1B 7461   9.589   5.335   6.337 -0.1430 -0.0894  0.0968
    1DIPC   D2B 7462   9.504   5.280   5.777  0.2827 -0.1441  0.2744
    1DIPC   D3B 7463   9.809   5.627   5.587  0.1377  0.3444  0.1172
    1DIPC   C4B 7464  10.104   5.756   5.607 -0.2453 -0.1216 -0.1086
    1DIPC   NC3 7465  18.933  28.141   7.342 -0.0719  0.0729 -0.5376
    1DIPC   PO4 7466  19.161  28.417   7.089  0.0116  0.2164 -0.0753
    1DIPC   GL1 7467  19.080  28.219   6.737 -0.1674  0.1867  0.1772
    1DIPC   GL2 7468  18.808  28.018   6.875  0.3795 -0.2639  0.0088
    1DIPC   C1A 7469  19.156  28.376   6.267 -0.0322  0.1069  0.1003
    1DIPC   D2A 7470  18.909  28.614   5.998  0.2812  0.2658 -0.0154
    1DIPC   D3A 7471  18.748  28.336   5.621 -0.2217  0.0665  0.0503
    1DIPC   C4A 7472  18.711  28.423   5.224 -0.0626  0.1852  0.0173
    1DIPC   C1B 7473  18.657  28.363   6.563  0.3061 -0.1835 -0.0199
    1DIPC   D2B 7474  18.873  28.742   6.499  0.3113  0.3658 -0.0221
    1DIPC   D3B 7475  19.175  28.971   6.250 -0.0226 -0.0164  0.2369
    1DIPC   C4B 7476  19.070  29.160   5.917 -0.4933  0.0296  0.1974
    1DIPC   NC3 7477  26.208  15.699   7.066 -0.1926 -0.2261  0.1381
    1DIPC   PO4 7478  25.803  15.585   6.994 -0.2371  0.0794 -0.3529
    1DIPC   GL1 7479  25.895  15.656   6.565  0.0655 -0.0150  0.1685
    1DIPC   GL2 7480  25.591  15.645   6.499 -0.0179  0.0255  0.1723
    1DIPC   C1A 7481  25.889  15.717   6.126 -0.1072  0.1733 -0.2038
    1DIPC   D2A 7482  26.053  15.699   5.702  0.0901  0.1703  0.1387
    1DIPC   D3A 7483  26.170  16.049   5.394  0.1246  0.2093 -0.1574
    1DIPC   C4A 7484  26.480  16.273   5.300  0.2618  0.2990  0.0282
    1DIPC   C1B 7485  25.422  15.502   6.175  0.3231  0.0957  0.0395
    1DIPC   D2B 7486  25.507  15.527   5.657  0.0190  0.2228 -0.1250
    1DIPC   D3B 7487  25.768  15.452   5.309 -0.1587  0.0729  0.0671
    1DIPC   C4B 7488  26.181  15.261   5.462  0.2583  0.0121  0.0512
    1DIPC   NC3 7489   2.320  10.590   6.681  0.0947  0.2210  0.2424
    1DIPC   PO4 7490   1.927  10.532   6.476  0.2165 -0.0630  0.0793
    1DIPC   GL1 7491   1.888  10.626   6.015  0.1191  0.2072 -0.1095
    1DIPC   GL2 7492   1.852  10.964   5.948  0.1494  0.0524 -0.0916
    1DIPC   C1A 7493   2.082  10.523   5.700  0.0183  0.1588 -0.1538
    1DIPC   D2A 7494   1.948  10.099   5.637  0.0160  0.4234  0.1150
    1DIPC   D3A 7495   1.962  10.369   5.170 -0.0347  0.0310  0.1819
    1DIPC   C4A 7496   1.987  10.642   4.832 -0.1497 -0.2095  0.5802
    1DIPC   C1B 7497   1.666  10.829   5.516 -0.3054  0.0653 -0.2958
    1DIPC   D2B 7498   1.661  10.782   5.260  0.0863 -0.1310 -0.1994
    1DIPC   D3B 7499   1.828  11.064   4.968 -0.2418  0.0179  0.2319
    1DIPC   C4B 7500   1.493  11.044   4.665  0.0131  0.2161  0.2474
    1DIPC   NC3 7501  15.428   5.992   8.391 -0.0138  0.2242  0.1391
    1DIPC   PO4 7502  15.682   6.017   8.024  0.0475 -0.3835  0.0796
    1DIPC   GL1 7503  15.774   5.979   7.563 -0.1357 -0.2566 -0.0920
    1DIPC   GL2 7504  16.045   6.157   7.412  0.3839  0.0825 -0.1231
    1DIPC   C1A 7505  15.463   6.090   7.216  0.3145 -0.0740 -0.1544
    1DIPC   D2A 7506  15.234   6.005   6.823  0.2660 -0.1850 -0.0548
    1DIPC   D3A 7507  14.827   5.920   6.993 -0.0099 -0.0796  0.1904
    1DIPC   C4A 7508  14.587   6.220   7.250  0.0356 -0.0892  0.0238
    1DIPC   C1B 7509  15.902   6.112   6.997 -0.0606 -0.1169 -0.1615
    1DIPC   D2B 7510  15.863   5.954   6.603 -0.1379  0.0032 -0.2012
    1DIPC   D3B 7511  15.650   5.633   6.283 -0.0284  0.0918 -0.0127
    1DIPC   C4B 7512  15.297   5.407   6.414 -0.1070  0.0338  0.0680
    1DIPC   NC3 7513  12.470  16.079   6.513  0.0975 -0.1953 -0.0414
    1DIPC   PO4 7514  12.739  16.443   6.222  0.1509 -0.0754 -0.1552
    1DIPC   GL1 7515  13.039  16.547   5.837  0.2948 -0.0111 -0.1700
    1DIPC   GL2 7516  12.910  16.680   5.551  0.1166 -0.1057  0.0097
    1DIPC   C1A 7517  13.051  16.248   5.460  0.1087  0.1041 -0.1492
    1DIPC   D2A 7518  12.993  16.205   5.082 -0.4179  0.0129 -0.1675
    1DIPC   D3A 7519  13.009  16.517   4.808 -0.1406  0.2077 -0.1064
    1DIPC   C4A 7520  13.370  16.747   4.646 -0.0024 -0.5354 -0.4599
    1DIPC   C1B 7521  12.645  16.580   5.220  0.0843 -0.2616  0.3285
    1DIPC   D2B 7522  12.386  16.714   4.943  0.0136  0.2478  0.1172
    1DIPC   D3B 7523  12.359  16.493   4.538  0.2190 -0.2249 -0.1866
    1DIPC   C4B 7524  12.283  16.135   4.353 -0.2510  0.1154 -0.2202
    1DIPC   NC3 7525   1.810   3.122   7.316 -0.0151 -0.2370 -0.0163
    1DIPC   PO4 7526   1.568   3.001   6.982 -0.2982 -0.2155  0.0713
    1DIPC   GL1 7527   1.577   3.117   6.541  0.1542 -0.0333 -0.1273
    1DIPC   GL2 7528   1.761   3.341   6.256 -0.0007  0.0376 -0.1641
    1DIPC   C1A 7529   1.332   3.266   6.089  0.4050 -0.4021  0.0461
    1DIPC   D2A 7530   1.078   3.175   5.702  0.1012 -0.0246 -0.0560
    1DIPC   D3A 7531   1.381   2.987   5.370 -0.3640  0.0907 -0.2166
    1DIPC   C4A 7532   1.290   3.141   4.937  0.1877  0.0121 -0.0640
    1DIPC   C1B 7533   2.101   3.073   6.165 -0.0031 -0.1524 -0.1760
    1DIPC   D2B 7534   2.486   2.948   5.982 -0.1814 -0.2232 -0.2959
    1DIPC   D3B 7535   2.421   3.192   5.636 -0.3350 -0.1327 -0.1633
    1DIPC   C4B 7536   2.201   3.315   5.277  0.1190  0.1712 -0.0149
    1DIPC   NC3 7537   3.906   6.175   6.657 -0.1011 -0.3646 -0.0687
    1DIPC   PO4 7538   3.501   6.285   6.804 -0.1475 -0.2967 -0.4143
    1DIPC   GL1 7539   3.595   6.466   6.401 -0.0507  0.1818 -0.0141
    1DIPC   GL2 7540   3.852   6.500   6.225 -0.1062 -0.0417 -0.1584
    1DIPC   C1A 7541   3.414   6.660   6.086 -0.0978  0.1794 -0.1087
    1DIPC   D2A 7542   3.249   7.032   5.803 -0.0694  0.1442 -0.1649
    1DIPC   D3A 7543   3.114   6.818   5.354  0.1963  0.0452 -0.1218
    1DIPC   C4A 7544   2.848   7.145   5.086  0.0895  0.1165 -0.2563
    1DIPC   C1B 7545   3.848   6.530   5.820 -0.3212  0.2048 -0.3117
    1DIPC   D2B 7546   3.648   6.866   5.629  0.0971 -0.2518 -0.1836
    1DIPC   D3B 7547   3.602   6.696   5.248  0.0483 -0.1007  0.0093
    1DIPC   C4B 7548   3.507   6.991   4.974  0.2655  0.1192 -0.0015
    1DIPC   NC3 7549  23.696   0.250   7.409  0.1056 -0.0012  0.1516
    1DIPC   PO4 7550  23.860   0.316   6.975 -0.0726  0.0230 -0.0559
    1DIPC   GL1 7551  23.915   0.227   6.451  0.0945 -0.1092 -0.0883
    1DIPC   GL2 7552  24.253   0.147   6.385 -0.0719  0.1905 -0.2815
    1DIPC   C1A 7553  23.812   0.392   5.953  0.3114  0.2401 -0.1125
    1DIPC   D2A 7554  23.874   0.438   5.595 -0.1624 -0.5346  0.0713
    1DIPC   D3A 7555  24.155   0.219   5.322 -0.1160 -0.2219  0.0713
    1DIPC   C4A 7556  24.553   0.322   5.286 -0.5049 -0.3394 -0.1295
    1DIPC   C1B 7557  24.344  29.640   6.056 -0.0856 -0.3115 -0.0374
    1DIPC   D2B 7558  24.694  29.370   5.921  0.0146 -0.0512  0.0861
    1DIPC   D3B 7559  24.585  29.100   5.524 -0.2640  0.0976  0.0066
    1DIPC   C4B 7560  24.840  28.909   5.217  0.0895  0.1058  0.5084
    1DIPC   NC3 7561  19.111   2.710   7.922 -0.0763 -0.1692  0.0293
    1DIPC   PO4 7562  18.957   2.440   7.756 -0.1783  0.1329 -0.0002
    1DIPC   GL1 7563  18.688   2.634   7.418 -0.2864 -0.1017  0.0244
    1DIPC   GL2 7564  18.737   2.733   7.119  0.0031  0.1532  0.1560
    1DIPC   C1A 7565  18.237   2.748   7.305 -0.3524 -0.3262 -0.0608
    1DIPC   D2A 7566  18.002   3.034   7.159 -0.1647 -0.2706  0.2704
    1DIPC   D3A 7567  17.828   2.909   6.735 -0.0588 -0.2028 -0.1621
    1DIPC   C4A 7568  17.465   2.732   6.569  0.1448 -0.1954  0.0415
    1DIPC   C1B 7569  18.769   2.565   6.664  0.1939 -0.0014 -0.2013
    1DIPC   D2B 7570  18.602   2.184   6.541  0.1570  0.0416 -0.3228
    1DIPC   D3B 7571  18.776   1.824   6.317 -0.0824  0.0725  0.2557
    1DIPC   C4B 7572  19.102   1.971   5.996 -0.0431 -0.1187  0.0618
    1DIPC   NC3 7573  19.105  26.208   5.919 -0.0723  0.1991 -0.2523
    1DIPC   PO4 7574  19.367  25.902   6.006 -0.1807 -0.1900 -0.0065
    1DIPC   GL1 7575  19.505  26.051   5.557  0.0670  0.0437 -0.0628
    1DIPC   GL2 7576  19.158  26.162   5.412  0.1099  0.1570 -0.0581
    1DIPC   C1A 7577  19.706  25.867   5.283  0.3084 -0.1244 -0.0919
    1DIPC   D2A 7578  19.600  25.909   4.811 -0.0258  0.0385 -0.1019
    1DIPC   D3A 7579  19.678  26.022   4.447 -0.1295  0.0198 -0.0073
    1DIPC   C4A 7580  19.669  25.993   4.038  0.3303  0.2508 -0.0882
    1DIPC   C1B 7581  19.186  26.169   5.033 -0.0036 -0.1930 -0.1176
    1DIPC   D2B 7582  19.141  26.282   4.670  0.1661  0.1810  0.0805
    1DIPC   D3B 7583  18.882  25.958   4.691 -0.1475 -0.1632 -0.2083
    1DIPC   C4B 7584  18.450  25.966   4.659 -0.1203 -0.0973  0.2425
    1DIPC   NC3 7585  27.000  22.001   6.624  0.1145  0.3012  0.1979
    1DIPC   PO4 7586  27.116  21.580   6.666 -0.5028  0.0718 -0.2108
    1DIPC   GL1 7587  26.756  21.603   6.441  0.2586  0.1274 -0.2926
    1DIPC   GL2 7588  26.885  21.500   6.186  0.1404  0.3982 -0.1089
    1DIPC   C1A 7589  26.310  21.725   6.224 -0.2584  0.2011  0.0269
    1DIPC   D2A 7590  25.859  21.596   6.202 -0.0547  0.1713 -0.0242
    1DIPC   D3A 7591  25.960  21.348   5.831 -0.0615 -0.0592 -0.2492
    1DIPC   C4A 7592  25.936  21.477   5.518 -0.0570 -0.0766 -0.1711
    1DIPC   C1B 7593  26.726  21.709   5.869 -0.1189 -0.2330  0.1514
    1DIPC   D2B 7594  26.348  21.613   5.654 -0.2184  0.0720 -0.1921
    1DIPC   D3B 7595  26.451  21.238   5.301 -0.0913  0.1341  0.1071
    1DIPC   C4B 7596  26.379  21.121   4.957 -0.2023  0.0737  0.1210
    1DIPC   NC3 7597   7.984  17.153   6.351 -0.0659 -0.0897 -0.0082
    1DIPC   PO4 7598   7.591  17.389   6.119 -0.1873 -0.1289  0.1445
    1DIPC   GL1 7599   7.589  17.642   5.768  0.0734  0.4281 -0.0376
    1DIPC   GL2 7600   7.809  17.848   5.830  0.0722 -0.3399  0.0346
    1DIPC   C1A 7601   7.781  17.562   5.334 -0.1626 -0.0627  0.0411
    1DIPC   D2A 7602   7.494  17.409   5.134  0.0152 -0.0262  0.1128
    1DIPC   D3A 7603   7.530  17.055   5.524 -0.0487 -0.0856  0.0243
    1DIPC   C4A 7604   7.936  16.995   5.481  0.1507  0.0197 -0.0046
    1DIPC   C1B 7605   8.094  17.914   5.613 -0.1535 -0.2560 -0.4611
    1DIPC   D2B 7606   8.627  17.833   5.673 -0.0078  0.1741 -0.4487
    1DIPC   D3B 7607   8.494  18.100   5.314 -0.2513  0.1489  0.0028
    1DIPC   C4B 7608   8.571  17.952   4.931 -0.1098  0.1833  0.0087
    1DIPC   NC3 7609   0.796   0.278   6.050 -0.4049  0.0876  0.0261
    1DIPC   PO4 7610   1.030   0.704   6.235  0.2472  0.0600 -0.0250
    1DIPC   GL1 7611   1.170   0.574   5.859  0.2344 -0.1075  0.3468
    1DIPC   GL2 7612   1.433   0.746   5.875 -0.0433  0.1146  0.1792
    1DIPC   C1A 7613   1.075   0.427   5.435 -0.3867 -0.2797  0.1476
    1DIPC   D2A 7614   0.933   0.032   5.319 -0.0013  0.0421 -0.1132
    1DIPC   D3A 7615   0.933   0.274   4.928  0.2361 -0.1667  0.0348
    1DIPC   C4A 7616   0.895   0.166   4.621 -0.2799 -0.2012 -0.0042
    1DIPC   C1B 7617   1.812   0.678   5.679  0.5579 -0.2220  0.0214
    1DIPC   D2B 7618   2.059   0.549   5.232  0.1573 -0.0419  0.1899
    1DIPC   D3B 7619   1.813   0.765   4.863 -0.2909  0.4987 -0.0081
    1DIPC   C4B 7620   1.996   1.011   4.542 -0.0363  0.0887 -0.1375
    1DIPC   NC3 7621  12.653  24.034   6.309  0.1252 -0.1156 -0.0355
    1DIPC   PO4 7622  12.951  24.204   6.060 -0.0231  0.0046  0.0306
    1DIPC   GL1 7623  13.066  24.162   5.509  0.1043 -0.1132 -0.0541
    1DIPC   GL2 7624  13.110  24.398   5.309  0.1012  0.0442  0.3270
    1DIPC   C1A 7625  12.989  23.983   5.143  0.2113  0.1704  0.0310
    1DIPC   D2A 7626  12.746  23.935   4.873  0.2556 -0.0088 -0.3117
    1DIPC   D3A 7627  12.963  23.531   4.923  0.2724  0.1184  0.0655
    1DIPC   C4A 7628  13.350  23.344   4.668  0.1826  0.1358  0.4130
    1DIPC   C1B 7629  12.998  24.363   4.824 -0.0396  0.0608  0.0113
    1DIPC   D2B 7630  12.763  24.193   4.409 -0.0335 -0.1093  0.0459
    1DIPC   D3B 7631  12.624  23.725   4.394  0.1246  0.1159 -0.0736
    1DIPC   C4B 7632  12.627  23.379   3.963  0.1846 -0.2623  0.0338
    1DIPC   NC3 7633  13.993   1.353   7.995  0.1837  0.0625 -0.2123
    1DIPC   PO4 7634  14.255   1.312   7.645  0.3726 -0.0100 -0.1318
    1DIPC   GL1 7635  14.190   1.522   7.155 -0.0018 -0.1444  0.0829
    1DIPC   GL2 7636  13.995   1.724   7.136 -0.3885 -0.0398 -0.1364
    1DIPC   C1A 7637  14.536   1.726   6.803  0.2526  0.0110  0.0658
    1DIPC   D2A 7638  14.856   1.679   6.452  0.1408 -0.0720 -0.0138
    1DIPC   D3A 7639  15.377   1.799   6.430 -0.0182 -0.0271 -0.0999
    1DIPC   C4A 7640  15.700   1.812   6.116  0.1480  0.0317 -0.0190
    1DIPC   C1B 7641  14.026   2.112   6.735  0.1339 -0.3278  0.0651
    1DIPC   D2B 7642  14.132   2.328   6.377 -0.0198 -0.4741  0.0664
    1DIPC   D3B 7643  14.470   2.578   6.356 -0.0159  0.3134 -0.2612
    1DIPC   C4B 7644  14.570   2.935   6.380  0.3920  0.2457  0.0967
    1DIPC   NC3 7645   3.414  27.049   5.688  0.3321  0.3196 -0.3970
    1DIPC   PO4 7646   3.745  27.327   5.625  0.0930 -0.3537 -0.1338
    1DIPC   GL1 7647   3.682  27.281   5.276  0.1589  0.0130 -0.2820
    1DIPC   GL2 7648   3.683  26.898   5.230  0.0871  0.1814  0.1481
    1DIPC   C1A 7649   3.927  27.329   4.875  0.0978  0.1599  0.1229
    1DIPC   D2A 7650   4.060  27.621   4.468  0.0599 -0.0701  0.2950
    1DIPC   D3A 7651   4.300  28.001   4.588  0.1332  0.2037 -0.1723
    1DIPC   C4A 7652   4.745  28.073   4.417 -0.0969 -0.0697 -0.0360
    1DIPC   C1B 7653   4.032  26.797   4.945  0.0686 -0.1064 -0.0668
    1DIPC   D2B 7654   4.363  26.657   4.757 -0.0857  0.0969 -0.0663
    1DIPC   D3B 7655   4.389  26.956   4.578  0.0686 -0.1360 -0.0623
    1DIPC   C4B 7656   4.174  27.159   4.315  0.2480 -0.0375  0.1642
    1DIPC   NC3 7657   0.710  25.762   6.562 -0.2008  0.0155 -0.4078
    1DIPC   PO4 7658   0.599  25.560   6.210 -0.0478  0.1682  0.0966
    1DIPC   GL1 7659   0.304  25.435   5.880  0.0204 -0.0173  0.1893
    1DIPC   GL2 7660   0.293  25.643   5.577  0.2262  0.1798  0.0077
    1DIPC   C1A 7661   0.145  25.178   5.531 -0.1525  0.0784 -0.1905
    1DIPC   D2A 7662  29.640  24.983   5.352  0.0389  0.0581 -0.3227
    1DIPC   D3A 7663  29.837  25.125   4.979 -0.1695 -0.2534  0.0418
    1DIPC   C4A 7664  29.432  25.213   4.882  0.0242  0.1415  0.0959
    1DIPC   C1B 7665   0.575  25.511   5.257 -0.1570  0.2594 -0.1486
    1DIPC   D2B 7666   0.539  25.268   4.930  0.5293  0.0392 -0.1973
    1DIPC   D3B 7667   0.328  25.183   4.576  0.2883 -0.2586 -0.0056
    1DIPC   C4B 7668  29.825  25.430   4.567 -0.3039 -0.0676  0.0508
    1DIPC   NC3 7669   0.432  10.178   6.480  0.1512 -0.0189 -0.2228
    1DIPC   PO4 7670   0.143   9.934   6.224  0.1707  0.2239 -0.1858
    1DIPC   GL1 7671   0.254   9.821   5.857  0.1921  0.3079 -0.0911
    1DIPC   GL2 7672   0.030  10.009   5.596 -0.0783  0.2075  0.0716
    1DIPC   C1A 7673   0.539   9.971   5.534 -0.0441 -0.0442  0.0474
    1DIPC   D2A 7674   0.392   9.842   5.034  0.0491  0.0008 -0.0452
    1DIPC   D3A 7675   0.246   9.505   5.363 -0.0578  0.1106 -0.0179
    1DIPC   C4A 7676  29.690   9.445   5.502 -0.0797 -0.2254  0.0262
    1DIPC   C1B 7677  29.808   9.805   5.175 -0.0975 -0.1728 -0.1357
    1DIPC   D2B 7678  29.806   9.794   4.784  0.0252  0.1677  0.4754
    1DIPC   D3B 7679  29.422   9.726   4.879 -0.1169 -0.0660  0.0722
    1DIPC   C4B 7680  29.345   9.642   5.147 -0.3427 -0.5123 -0.1426
    1DIPC   NC3 7681  22.789  26.543   6.571 -0.0942  0.0973 -0.1187
    1DIPC   PO4 7682  22.785  26.154   6.567  0.0010 -0.1105 -0.2873
    1DIPC   GL1 7683  22.752  26.058   6.101  0.1041  0.1306 -0.0330
    1DIPC   GL2 7684  22.402  26.070   5.991  0.3451 -0.0498  0.1197
    1DIPC   C1A 7685  22.875  25.677   5.779 -0.0870 -0.0598 -0.0373
    1DIPC   D2A 7686  23.017  25.275   5.844 -0.2546 -0.0536 -0.2226
    1DIPC   D3A 7687  23.259  25.215   5.375 -0.3163  0.2426 -0.0041
    1DIPC   C4A 7688  23.349  24.830   5.082  0.4744  0.0096  0.1683
    1DIPC   C1B 7689  22.423  26.407   5.677  0.3413 -0.2027  0.1078
    1DIPC   D2B 7690  22.609  26.521   5.280  0.0926 -0.0259 -0.0461
    1DIPC   D3B 7691  22.224  26.530   5.124 -0.0027  0.0277  0.1000
    1DIPC   C4B 7692  21.795  26.588   5.341 -0.1400  0.1317  0.0512
    1DIPC   NC3 7693  21.625  23.452   5.694  0.0126  0.2376 -0.0286
    1DIPC   PO4 7694  21.747  23.279   6.104 -0.0864  0.1099  0.0116
    1DIPC   GL1 7695  21.872  23.004   5.735 -0.2798  0.2686 -0.2702
    1DIPC   GL2 7696  22.145  23.226   5.681  0.4142  0.1802 -0.1271
    1DIPC   C1A 7697  22.145  22.762   5.555  0.1248 -0.2798 -0.1721
    1DIPC   D2A 7698  22.570  22.783   5.511 -0.3062  0.3996 -0.1099
    1DIPC   D3A 7699  22.888  22.701   5.262  0.3612  0.3065 -0.1085
    1DIPC   C4A 7700  23.095  22.365   5.333 -0.0816 -0.0866  0.4124
    1DIPC   C1B 7701  22.297  23.106   5.234  0.1354  0.1717  0.0616
    1DIPC   D2B 7702  22.304  22.989   4.772 -0.1672  0.1366  0.0069
    1DIPC   D3B 7703  21.949  23.206   4.649  0.2226 -0.1669 -0.0661
    1DIPC   C4B 7704  21.637  22.956   4.655  0.1614  0.0771 -0.0271
    1DIPC   NC3 7705   5.137   1.636   6.854  0.0765  0.2314 -0.2796
    1DIPC   PO4 7706   5.126   2.060   6.758  0.0791  0.0242 -0.1090
    1DIPC   GL1 7707   5.264   2.254   6.437  0.0146 -0.1733 -0.2102
    1DIPC   GL2 7708   5.091   2.091   6.171 -0.1090 -0.0042 -0.0167
    1DIPC   C1A 7709   5.157   2.589   6.108 -0.0670 -0.1448 -0.0371
    1DIPC   D2A 7710   5.395   2.942   6.012  0.1065 -0.2466 -0.1630
    1DIPC   D3A 7711   5.868   2.701   5.939 -0.1179  0.2941 -0.1307
    1DIPC   C4A 7712   5.911   2.255   6.016 -0.1743 -0.2003 -0.1597
    1DIPC   C1B 7713   5.412   2.263   5.849 -0.0509  0.2609  0.1220
    1DIPC   D2B 7714   5.696   2.384   5.539 -0.0178  0.0952  0.0962
    1DIPC   D3B 7715   5.940   2.778   5.363  0.0676  0.2004  0.0947
    1DIPC   C4B 7716   5.860   2.987   4.978 -0.2206 -0.0435  0.0531
    1DIPC   NC3 7717  22.529   3.308   7.721 -0.0427 -0.1033 -0.0096
    1DIPC   PO4 7718  22.809   2.991   7.431  0.0424  0.0560 -0.0174
    1DIPC   GL1 7719  22.526   3.137   7.180 -0.3462 -0.0698  0.0850
    1DIPC   GL2 7720  22.607   3.314   7.045 -0.1269 -0.2126  0.0338
    1DIPC   C1A 7721  22.145   3.213   7.131  0.0732  0.1051 -0.0459
    1DIPC   D2A 7722  21.822   3.258   6.898 -0.1838 -0.0562  0.1227
    1DIPC   D3A 7723  21.946   3.145   6.422  0.3077 -0.3770 -0.0007
    1DIPC   C4A 7724  22.268   3.284   6.193 -0.1062 -0.2990 -0.2934
    1DIPC   C1B 7725  22.302   3.389   6.739  0.3537 -0.1023  0.4503
    1DIPC   D2B 7726  22.433   3.682   6.440 -0.0546  0.0841  0.4586
    1DIPC   D3B 7727  22.852   3.840   6.590 -0.0976  0.1268  0.1110
    1DIPC   C4B 7728  23.001   4.199   6.477  0.0301 -0.0774 -0.2876
    1DIPC   NC3 7729  15.313   4.954   8.548  0.5746  0.1181 -0.2290
    1DIPC   PO4 7730  15.155   4.904   8.152 -0.0804  0.1714  0.3258
    1DIPC   GL1 7731  15.094   4.815   7.722  0.0305 -0.2332 -0.0489
    1DIPC   GL2 7732  14.940   4.544   7.636 -0.1579  0.0465 -0.1058
    1DIPC   C1A 7733  15.108   5.119   7.392 -0.3466  0.0143 -0.4666
    1DIPC   D2A 7734  15.128   5.024   6.973 -0.0928  0.0496  0.0172
    1DIPC   D3A 7735  15.496   5.336   6.946  0.1643 -0.4099  0.0476
    1DIPC   C4A 7736  15.521   5.654   6.793  0.0619 -0.3767 -0.0952
    1DIPC   C1B 7737  15.044   4.651   7.243  0.1725 -0.1028 -0.0184
    1DIPC   D2B 7738  15.005   4.586   6.768 -0.4746  0.2444 -0.2324
    1DIPC   D3B 7739  15.340   4.393   6.996  0.3005 -0.0016  0.1358
    1DIPC   C4B 7740  15.193   4.044   7.221 -0.0562 -0.0244  0.1157
    1DIPC   NC3 7741   2.567  24.623   6.246 -0.1907  0.1387 -0.0005
    1DIPC   PO4 7742   2.876  24.650   5.941 -0.1411  0.0229 -0.0560
    1DIPC   GL1 7743   2.799  24.413   5.520 -0.1514 -0.0188  0.1828
    1DIPC   GL2 7744   2.711  24.669   5.230  0.3731  0.0055 -0.1077
    1DIPC   C1A 7745   2.794  24.026   5.166 -0.0959  0.2133 -0.2928
    1DIPC   D2A 7746   2.689  23.844   4.809  0.1865  0.2430 -0.2688
    1DIPC   D3A 7747   2.223  23.975   4.630  0.0464 -0.0124  0.0362
    1DIPC   C4A 7748   1.856  24.077   4.804  0.0533 -0.2844 -0.0785
    1DIPC   C1B 7749   2.334  24.874   5.166  0.0239 -0.0775  0.0143
    1DIPC   D2B 7750   2.062  24.973   4.810 -0.1478 -0.4489 -0.2214
    1DIPC   D3B 7751   2.119  24.606   4.607  0.3460 -0.0887 -0.1422
    1DIPC   C4B 7752   2.464  24.389   4.807 -0.1888 -0.0694 -0.1853
    1DIPC   NC3 7753  11.755  12.840   6.455  0.3356  0.1943 -0.1015
    1DIPC   PO4 7754  11.493  13.042   6.105 -0.2543 -0.0587 -0.1890
    1DIPC   GL1 7755  11.697  12.751   5.919  0.0523 -0.2350  0.3880
    1DIPC   GL2 7756  12.020  12.874   5.896  0.0691  0.3102 -0.0378
    1DIPC   C1A 7757  11.860  12.368   5.799 -0.1083 -0.3606  0.4261
    1DIPC   D2A 7758  11.858  12.088   5.453  0.1027 -0.3594  0.0972
    1DIPC   D3A 7759  12.289  12.011   5.666 -0.2544 -0.0513 -0.0755
    1DIPC   C4A 7760  12.384  12.411   5.899  0.4559  0.2327 -0.1824
    1DIPC   C1B 7761  11.923  12.899   5.438  0.1140 -0.1769 -0.1839
    1DIPC   D2B 7762  11.528  12.898   5.102 -0.0905  0.1104  0.1468
    1DIPC   D3B 7763  11.919  12.905   4.900 -0.0260 -0.0761 -0.5225
    1DIPC   C4B 7764  12.225  12.811   5.007 -0.2175  0.0133  0.0580
    1DIPC   NC3 7765  15.689   8.209   7.472  0.0466  0.0268  0.1200
    1DIPC   PO4 7766  16.083   7.986   7.653 -0.0905  0.1306  0.0692
    1DIPC   GL1 7767  15.942   7.839   7.266 -0.0241  0.0175  0.0071
    1DIPC   GL2 7768  16.343   7.903   7.253 -0.2374 -0.1299  0.2260
    1DIPC   C1A 7769  15.941   7.764   6.871  0.2329 -0.1039 -0.2290
    1DIPC   D2A 7770  15.644   7.730   6.487 -0.3454 -0.1206  0.0631
    1DIPC   D3A 7771  15.202   7.569   6.637  0.1108  0.0669  0.0385
    1DIPC   C4A 7772  15.008   7.255   6.502 -0.0477 -0.1587 -0.0074
    1DIPC   C1B 7773  16.361   8.147   6.813  0.0831  0.0715  0.1198
    1DIPC   D2B 7774  16.226   7.935   6.417 -0.1341  0.0623  0.0772
    1DIPC   D3B 7775  16.144   7.810   6.058 -0.2869  0.0554  0.1042
    1DIPC   C4B 7776  15.770   7.592   6.038 -0.1156  0.1677  0.1021
    1DIPC   NC3 7777  22.759   4.533   8.032  0.0964  0.1756  0.0367
    1DIPC   PO4 7778  22.360   4.906   7.937 -0.1288  0.0345  0.3292
    1DIPC   GL1 7779  22.268   5.160   7.516 -0.0754 -0.0321  0.1372
    1DIPC   GL2 7780  22.659   5.264   7.366  0.3256 -0.0232 -0.2755
    1DIPC   C1A 7781  22.136   5.369   7.098  0.0160 -0.2776  0.1887
    1DIPC   D2A 7782  21.918   5.414   6.741  0.1256  0.2616 -0.0822
    1DIPC   D3A 7783  21.818   5.035   6.516  0.2713 -0.0267  0.0932
    1DIPC   C4A 7784  22.044   4.813   6.195  0.3927 -0.0499 -0.0285
    1DIPC   C1B 7785  22.683   5.514   6.990  0.1224 -0.2090 -0.1822
    1DIPC   D2B 7786  22.951   5.749   6.604  0.2302 -0.0661  0.0251
    1DIPC   D3B 7787  23.122   5.753   6.229 -0.0921  0.1165 -0.1421
    1DIPC   C4B 7788  22.796   5.463   6.069 -0.1872  0.3555  0.0784
    1DIPC   NC3 7789  13.764  23.584   5.281 -0.2239  0.1747 -0.0630
    1DIPC   PO4 7790  13.965  23.949   5.167 -0.0046 -0.0615 -0.1910
    1DIPC   GL1 7791  14.065  23.864   4.696  0.1144 -0.0015 -0.2106
    1DIPC   GL2 7792  14.410  23.671   4.533  0.2481  0.1115  0.1928
    1DIPC   C1A 7793  14.115  24.065   4.307  0.1508 -0.3521 -0.2443
    1DIPC   D2A 7794  13.898  24.102   3.882 -0.0999  0.2582 -0.0101
    1DIPC   D3A 7795  14.159  24.048   3.447  0.2969  0.3008 -0.0136
    1DIPC   C4A 7796  14.377  24.290   3.315 -0.0270  0.2082  0.2840
    1DIPC   C1B 7797  14.153  23.474   4.268 -0.1269 -0.3345 -0.1670
    1DIPC   D2B 7798  14.099  23.512   3.800 -0.2008  0.1166  0.2315
    1DIPC   D3B 7799  14.401  23.555   3.481  0.1424  0.1619  0.1649
    1DIPC   C4B 7800  14.835  23.637   3.680 -0.1586 -0.0532 -0.1981
    1DIPC   NC3 7801   3.185  21.050   6.333 -0.0573 -0.0819 -0.1925
    1DIPC   PO4 7802   3.633  20.944   6.380 -0.2177 -0.2410  0.1424
    1DIPC   GL1 7803   3.500  21.004   5.929  0.1042 -0.2067  0.0173
    1DIPC   GL2 7804   3.540  21.410   5.966  0.3396 -0.0293 -0.1263
    1DIPC   C1A 7805   3.509  20.917   5.487  0.1037  0.2074  0.0142
    1DIPC   D2A 7806   3.430  20.915   5.064 -0.0042  0.1989 -0.1569
    1DIPC   D3A 7807   3.890  20.703   4.858  0.0526 -0.3160 -0.0638
    1DIPC   C4A 7808   3.931  20.715   4.380  0.0950 -0.0744  0.1894
    1DIPC   C1B 7809   3.696  21.321   5.591 -0.2087 -0.0147  0.1353
    1DIPC   D2B 7810   3.605  21.425   5.169  0.0967 -0.0649  0.3952
    1DIPC   D3B 7811   3.727  21.875   5.110  0.1275 -0.1139 -0.0540
    1DIPC   C4B 7812   3.984  22.083   5.322  0.3195  0.1229 -0.0738
    1DIPC   NC3 7813  10.416   5.092   7.192 -0.0280 -0.5353  0.1245
    1DIPC   PO4 7814  10.778   4.801   6.983 -0.2575  0.2616  0.0124
    1DIPC   GL1 7815  10.933   4.776   6.655 -0.1833  0.2798  0.1479
    1DIPC   GL2 7816  11.066   4.443   6.746 -0.0777  0.1914  0.2328
    1DIPC   C1A 7817  11.014   4.981   6.352  0.1529  0.0069 -0.0524
    1DIPC   D2A 7818  11.156   5.287   6.008 -0.0627  0.0891 -0.3307
    1DIPC   D3A 7819  11.229   4.968   5.679 -0.0604 -0.1640  0.6408
    1DIPC   C4A 7820  11.606   4.765   5.413  0.4403  0.0648 -0.2570
    1DIPC   C1B 7821  11.074   4.412   6.370 -0.0320 -0.2298 -0.0155
    1DIPC   D2B 7822  11.137   4.169   6.085  0.1469  0.1013 -0.2176
    1DIPC   D3B 7823  10.679   4.185   5.928  0.0790  0.2136 -0.1333
    1DIPC   C4B 7824  10.382   4.387   5.607  0.0361  0.2830 -0.1453
    1DIPC   NC3 7825  13.108   3.192   7.999  0.0884 -0.0813  0.1094
    1DIPC   PO4 7826  13.076   2.884   7.624  0.2877 -0.2243  0.5548
    1DIPC   GL1 7827  13.321   2.651   7.275  0.2035 -0.0274 -0.0934
    1DIPC   GL2 7828  13.124   2.728   6.916  0.0637 -0.1540  0.0491
    1DIPC   C1A 7829  13.617   2.461   6.921  0.0229 -0.0470 -0.1391
    1DIPC   D2A 7830  13.896   2.666   6.727  0.0690  0.1815 -0.2519
    1DIPC   D3A 7831  13.731   2.658   6.218  0.5113 -0.2583  0.3184
    1DIPC   C4A 7832  14.111   2.766   6.075 -0.0278  0.1206 -0.1495
    1DIPC   C1B 7833  13.426   2.916   6.751 -0.0144 -0.2393 -0.0968
    1DIPC   D2B 7834  13.699   3.066   6.443 -0.2449 -0.0379  0.1201
    1DIPC   D3B 7835  13.782   3.221   6.009 -0.2164 -0.0490 -0.3243
    1DIPC   C4B 7836  13.714   3.635   5.872 -0.3372 -0.0862  0.0509
    1DIPC   NC3 7837  29.824  17.257   6.404  0.1301 -0.0472  0.0801
    1DIPC   PO4 7838  29.383  17.186   6.392  0.2782 -0.0429 -0.4982
    1DIPC   GL1 7839  29.640  17.439   5.967  0.1596 -0.2043 -0.1133
    1DIPC   GL2 7840   0.050  17.484   5.877  0.0902  0.1099  0.3665
    1DIPC   C1A 7841  29.602  17.404   5.520 -0.2033  0.0468  0.0679
    1DIPC   D2A 7842  29.644  17.366   5.033  0.0425 -0.0457  0.2420
    1DIPC   D3A 7843   0.188  17.586   5.005  0.0587  0.1053  0.1694
    1DIPC   C4A 7844   0.345  17.969   5.213 -0.1515 -0.1546  0.1434
    1DIPC   C1B 7845   0.256  17.472   5.535 -0.1253  0.1433  0.0361
    1DIPC   D2B 7846   0.351  17.094   5.263  0.1023  0.0778 -0.1069
    1DIPC   D3B 7847   0.383  17.105   4.784  0.1930  0.1729 -0.0569
    1DIPC   C4B 7848   0.680  16.859   4.586 -0.1749 -0.1876  0.0428
    1DIPC   NC3 7849  23.979   2.732   7.995  0.1275 -0.0232 -0.2497
    1DIPC   PO4 7850  24.336   2.733   7.609 -0.2661  0.5278  0.0321
    1DIPC   GL1 7851  24.347   2.837   7.142  0.3648  0.1202 -0.1460
    1DIPC   GL2 7852  24.120   3.030   7.066  0.1513  0.1133 -0.0609
    1DIPC   C1A 7853  24.309   2.620   6.748 -0.1785  0.3376 -0.1609
    1DIPC   D2A 7854  24.235   2.736   6.288  0.0452 -0.0063  0.1688
    1DIPC   D3A 7855  24.413   2.379   6.161 -0.0683  0.0236 -0.1441
    1DIPC   C4A 7856  24.796   2.315   5.846  0.0362  0.0308  0.0064
    1DIPC   C1B 7857  23.859   2.985   6.735  0.1844 -0.0003  0.2070
    1DIPC   D2B 7858  23.671   2.574   6.706 -0.0627 -0.1101  0.1891
    1DIPC   D3B 7859  23.719   2.774   6.300 -0.1291  0.2595 -0.2103
    1DIPC   C4B 7860  23.895   2.666   5.939  0.2751 -0.1947  0.1467
    1DIPC   NC3 7861  11.834  24.007   5.919  0.3668  0.0184  0.0374
    1DIPC   PO4 7862  11.591  23.852   5.550  0.0534 -0.1511  0.1134
    1DIPC   GL1 7863  11.700  23.913   5.162  0.1013 -0.0872 -0.1104
    1DIPC   GL2 7864  11.956  23.714   5.030 -0.0385  0.1485 -0.1238
    1DIPC   C1A 7865  11.650  24.085   4.735  0.1532 -0.2805 -0.1912
    1DIPC   D2A 7866  11.764  24.344   4.288 -0.0049 -0.1339  0.1091
    1DIPC   D3A 7867  11.874  24.037   3.841 -0.0100 -0.0461 -0.2497
    1DIPC   C4A 7868  11.961  24.032   3.516 -0.0554 -0.0335 -0.0462
    1DIPC   C1B 7869  12.121  23.946   4.683 -0.0131 -0.0511  0.2586
    1DIPC   D2B 7870  12.233  24.155   4.310 -0.0990  0.1563  0.1875
    1DIPC   D3B 7871  12.379  24.289   3.892  0.1023  0.4066  0.1017
    1DIPC   C4B 7872  12.480  24.118   3.491  0.1800 -0.0966  0.1479
    1DIPC   NC3 7873   2.945  13.536   6.196  0.1899 -0.2180  0.0248
    1DIPC   PO4 7874   2.722  13.215   6.319 -0.0605 -0.0496  0.1308
    1DIPC   GL1 7875   2.817  13.219   5.850  0.0633 -0.3447 -0.0180
    1DIPC   GL2 7876   3.107  13.480   5.701  0.1088 -0.1474 -0.3672
    1DIPC   C1A 7877   2.518  13.340   5.473 -0.1437  0.0304 -0.0936
    1DIPC   D2A 7878   2.269  13.374   5.112  0.0020  0.2864 -0.2330
    1DIPC   D3A 7879   2.629  13.099   5.043  0.0868  0.4605  0.0469
    1DIPC   C4A 7880   2.305  12.827   4.863  0.0596 -0.0161  0.0697
    1DIPC   C1B 7881   2.966  13.543   5.237 -0.0209 -0.1716 -0.2572
    1DIPC   D2B 7882   2.765  13.580   4.925  0.0693 -0.0668 -0.1843
    1DIPC   D3B 7883   2.658  13.417   4.418  0.1046 -0.0324  0.0379
    1DIPC   C4B 7884   2.367  13.171   4.417  0.1509 -0.0234  0.0351
    1DIPC   NC3 7885   0.457   5.840   7.062 -0.1150 -0.2011 -0.0071
    1DIPC   PO4 7886   0.585   5.551   6.971 -0.2406  0.2379 -0.0028
    1DIPC   GL1 7887   0.493   5.610   6.544 -0.4133 -0.1262  0.4033
    1DIPC   GL2 7888   0.843   5.584   6.428  0.0742 -0.3776 -0.1323
    1DIPC   C1A 7889   0.399   5.466   6.164 -0.3672 -0.1582 -0.0620
    1DIPC   D2A 7890   0.617   5.271   5.811 -0.1459  0.0466  0.2185
    1DIPC   D3A 7891   0.572   5.392   5.390  0.2319 -0.3289  0.3643
    1DIPC   C4A 7892   0.478   5.812   5.204 -0.0921  0.1673 -0.0989
    1DIPC   C1B 7893   0.748   5.800   6.063  0.0649 -0.1307  0.0518
    1DIPC   D2B 7894   0.434   5.743   5.717 -0.1028  0.0058  0.1446
    1DIPC   D3B 7895   0.149   5.909   5.564 -0.1561  0.0405 -0.0715
    1DIPC   C4B 7896  29.700   5.835   5.895 -0.0332  0.2280  0.3720
    1DIPC   NC3 7897  21.939  24.738   6.779  0.1858 -0.2232  0.2251
    1DIPC   PO4 7898  21.941  24.836   6.373  0.1665 -0.2409  0.0748
    1DIPC   GL1 7899  22.280  25.011   6.082  0.0212 -0.0679 -0.0245
    1DIPC   GL2 7900  22.389  24.688   5.935 -0.1284  0.2213  0.0833
    1DIPC   C1A 7901  22.333  25.108   5.651  0.1169 -0.0920 -0.0614
    1DIPC   D2A 7902  22.256  24.971   5.165 -0.1643  0.1733 -0.1142
    1DIPC   D3A 7903  22.193  24.964   4.595 -0.1292 -0.2226  0.3267
    1DIPC   C4A 7904  21.994  24.609   4.400 -0.0477  0.0005  0.0967
    1DIPC   C1B 7905  22.659  24.377   5.728  0.3492 -0.1823 -0.4059
    1DIPC   D2B 7906  22.440  24.053   5.463 -0.2131 -0.0667  0.0268
    1DIPC   D3B 7907  22.590  23.681   5.194  0.0346 -0.1756 -0.0854
    1DIPC   C4B 7908  22.245  23.504   4.905  0.2711  0.1681 -0.2196
    1DIPC   NC3 7909  14.474   6.294   8.495  0.1191  0.5601 -0.0206
    1DIPC   PO4 7910  14.851   6.207   8.305 -0.1096  0.2397  0.1403
    1DIPC   GL1 7911  14.809   6.323   7.896  0.1813 -0.0467 -0.1918
    1DIPC   GL2 7912  14.654   6.450   7.764  0.1929  0.0748  0.0074
    1DIPC   C1A 7913  14.904   5.978   7.597 -0.1261  0.0540 -0.1914
    1DIPC   D2A 7914  14.714   5.630   7.491  0.0343  0.0114 -0.1108
    1DIPC   D3A 7915  14.661   5.433   7.175 -0.1296  0.2956 -0.0343
    1DIPC   C4A 7916  14.540   5.579   6.777 -0.2239  0.0395  0.2313
    1DIPC   C1B 7917  14.301   6.559   7.553  0.1003 -0.0574 -0.0403
    1DIPC   D2B 7918  14.026   6.772   7.258 -0.5194  0.0519  0.2261
    1DIPC   D3B 7919  13.753   7.043   7.148 -0.0808 -0.1605 -0.1176
    1DIPC   C4B 7920  13.606   7.137   6.705 -0.0158 -0.1812  0.2663
    1DIPC   NC3 7921  19.948   0.273   7.814  0.0981  0.1892 -0.1727
    1DIPC   PO4 7922  19.602   0.572   7.712  0.2829  0.2062  0.4241
    1DIPC   GL1 7923  19.228   0.404   7.497 -0.0926  0.1151 -0.0002
    1DIPC   GL2 7924  19.068   0.718   7.291 -0.4016 -0.1590 -0.1126
    1DIPC   C1A 7925  19.179   0.104   7.131 -0.0011 -0.0193 -0.1160
    1DIPC   D2A 7926  19.366  29.664   6.873 -0.1740 -0.1215 -0.2755
    1DIPC   D3A 7927  19.000  29.413   7.103 -0.1714 -0.1029  0.2735
    1DIPC   C4A 7928  18.783  29.715   7.325 -0.1461  0.1860  0.1852
    1DIPC   C1B 7929  19.013   0.472   6.908 -0.1817 -0.0005 -0.0558
    1DIPC   D2B 7930  18.976   0.125   6.655 -0.0229 -0.0705  0.1071
    1DIPC   D3B 7931  19.029   0.317   6.264 -0.1223  0.2808  0.0472
    1DIPC   C4B 7932  19.087   0.666   6.047 -0.2666  0.3513 -0.0797
    1DIPC   NC3 7933  16.404  29.820   7.121  0.2061 -0.0852  0.0546
    1DIPC   PO4 7934  16.522  29.509   7.238 -0.1679 -0.1726  0.3281
    1DIPC   GL1 7935  16.310  29.312   6.832 -0.0950 -0.1159 -0.0441
    1DIPC   GL2 7936  16.106  29.630   6.722 -0.1070  0.0520  0.0478
    1DIPC   C1A 7937  16.201  29.235   6.414  0.0055 -0.3513  0.4132
    1DIPC   D2A 7938  15.970  29.447   6.131  0.1594 -0.1159  0.1963
    1DIPC   D3A 7939  16.047  29.361   5.670  0.2670  0.0337  0.0644
    1DIPC   C4A 7940  16.264  29.750   5.502 -0.2406 -0.0109  0.0466
    1DIPC   C1B 7941  16.379  29.816   6.475  0.0565  0.1585  0.0779
    1DIPC   D2B 7942  16.802  29.837   6.227  0.1409 -0.1377  0.0989
    1DIPC   D3B 7943  17.085   0.033   5.918  0.1755 -0.0231 -0.1181
    1DIPC   C4B 7944  17.496   0.106   6.147  0.1277  0.1073 -0.1360
    1DIPC   NC3 7945  24.664  26.678   7.031  0.1668 -0.0532  0.0970
    1DIPC   PO4 7946  24.335  26.826   6.854 -0.2405  0.0316  0.5347
    1DIPC   GL1 7947  24.275  26.772   6.347 -0.0341  0.3559  0.1441
    1DIPC   GL2 7948  24.085  26.595   6.273  0.0670 -0.0307  0.2485
    1DIPC   C1A 7949  24.458  27.100   5.972 -0.1717  0.1179  0.0370
    1DIPC   D2A 7950  24.471  27.189   5.578  0.2427 -0.0262  0.2311
    1DIPC   D3A 7951  24.871  27.281   5.561  0.0969 -0.0351  0.2832
    1DIPC   C4A 7952  25.085  26.990   5.302 -0.0139 -0.0793 -0.1697
    1DIPC   C1B 7953  23.757  26.541   5.902  0.1653 -0.1130 -0.3261
    1DIPC   D2B 7954  23.374  26.405   5.894  0.0295 -0.4362 -0.1844
    1DIPC   D3B 7955  23.520  26.331   5.418  0.4855  0.0317 -0.2956
    1DIPC   C4B 7956  23.800  26.709   5.395  0.0359  0.1552  0.2189
    1DIPC   NC3 7957  26.172  14.767   7.471  0.0054  0.1205 -0.0871
    1DIPC   PO4 7958  26.430  14.946   7.160 -0.1524 -0.0360 -0.0698
    1DIPC   GL1 7959  26.245  15.240   6.821 -0.1216  0.0043 -0.1226
    1DIPC   GL2 7960  25.933  15.106   6.731 -0.0265 -0.1152 -0.2002
    1DIPC   C1A 7961  26.245  15.357   6.409  0.0628  0.1035  0.0481
    1DIPC   D2A 7962  26.310  15.394   5.978  0.1220 -0.0365  0.0753
    1DIPC   D3A 7963  26.763  15.361   6.097 -0.1130  0.0567 -0.7089
    1DIPC   C4A 7964  27.036  15.601   5.778  0.1232  0.0613 -0.0170
    1DIPC   C1B 7965  25.819  15.026   6.356  0.1128 -0.0073  0.1090
    1DIPC   D2B 7966  25.854  15.254   6.053 -0.1611 -0.0191 -0.0169
    1DIPC   D3B 7967  25.769  15.002   5.722 -0.3964 -0.1453  0.1970
    1DIPC   C4B 7968  25.373  14.814   5.658 -0.2691 -0.3601 -0.0995
    1DIPC   NC3 7969  24.760  28.649   7.149 -0.0804 -0.1433 -0.2186
    1DIPC   PO4 7970  24.346  28.497   6.878  0.0663  0.1887  0.0311
    1DIPC   GL1 7971  24.546  28.662   6.476 -0.0990 -0.1570 -0.1989
    1DIPC   GL2 7972  24.248  28.689   6.282 -0.2821 -0.2624  0.1099
    1DIPC   C1A 7973  24.571  28.376   6.074 -0.2116  0.4602 -0.3255
    1DIPC   D2A 7974  24.744  28.256   5.714 -0.0945 -0.1866  0.2807
    1DIPC   D3A 7975  24.842  28.064   5.325  0.0625  0.0754  0.4525
    1DIPC   C4A 7976  24.766  28.401   5.106 -0.4226 -0.2269  0.0282
    1DIPC   C1B 7977  24.171  28.612   5.869 -0.1049 -0.0517  0.0675
    1DIPC   D2B 7978  24.331  28.516   5.529  0.3162  0.0644 -0.0879
    1DIPC   D3B 7979  24.324  28.678   5.068  0.3072  0.1812 -0.3780
    1DIPC   C4B 7980  24.405  28.438   4.746  0.2740 -0.0263  0.0741
    1DIPC   NC3 7981  28.527   1.061   6.815  0.1762 -0.1499 -0.1096
    1DIPC   PO4 7982  28.487   1.078   6.368 -0.0098 -0.2673 -0.0667
    1DIPC   GL1 7983  28.501   0.789   5.954  0.0156 -0.1161 -0.4067
    1DIPC   GL2 7984  28.481   1.091   5.813  0.3092 -0.0300 -0.2700
    1DIPC   C1A 7985  28.394   0.746   5.479  0.0818  0.0299 -0.0326
    1DIPC   D2A 7986  28.161   0.753   5.146  0.0871  0.0928 -0.0737
    1DIPC   D3A 7987  27.980   0.364   5.077  0.0364 -0.0975  0.2092
    1DIPC   C4A 7988  27.962   0.274   4.634 -0.2602  0.1923  0.1327
    1DIPC   C1B 7989  28.155   1.170   5.482 -0.1977  0.1263  0.0212
    1DIPC   D2B 7990  27.696   0.970   5.402  0.0297  0.2386  0.1519
    1DIPC   D3B 7991  27.908   0.717   5.685  0.0027  0.0942  0.0051
    1DIPC   C4B 7992  28.151   0.278   5.562 -0.1964 -0.2853 -0.1641
    1DIPC   NC3 7993   9.400  23.235   6.301 -0.2214  0.5050 -0.1033
    1DIPC   PO4 7994   9.658  23.467   5.934 -0.1543  0.2197 -0.3175
    1DIPC   GL1 7995   9.814  23.342   5.500 -0.2172  0.2873  0.0405
    1DIPC   GL2 7996  10.007  23.590   5.420 -0.1288  0.0392 -0.1098
    1DIPC   C1A 7997   9.794  23.127   5.027  0.0025 -0.0292  0.0337
    1DIPC   D2A 7998  10.080  22.958   4.688 -0.0921  0.0004  0.0635
    1DIPC   D3A 7999  10.192  22.501   4.726  0.0081  0.1687  0.2285
    1DIPC   C4A 8000  10.619  22.434   4.654 -0.0168 -0.0059  0.3438
    1DIPC   C1B 8001   9.994  23.609   5.023  0.1229  0.1066  0.0462
    1DIPC   D2B 8002   9.665  23.707   4.724  0.1578 -0.0666 -0.1042
    1DIPC   D3B 8003   9.943  23.774   4.289 -0.1515  0.1921 -0.0336
    1DIPC   C4B 8004  10.381  24.037   4.328 -0.1459 -0.2443 -0.1267
    1DIPC   NC3 8005   0.373  16.877   6.547 -0.3067 -0.2185 -0.2706
    1DIPC   PO4 8006   0.029  16.791   6.587 -0.0368 -0.0168 -0.0484
    1DIPC   GL1 8007  29.805  16.913   6.090 -0.1682 -0.1755  0.0861
    1DIPC   GL2 8008  29.525  16.999   5.956  0.4767  0.1658 -0.1693
    1DIPC   C1A 8009   0.031  17.011   5.668  0.2949  0.1042 -0.2767
    1DIPC   D2A 8010  29.700  16.917   5.223 -0.1596 -0.2036 -0.3286
    1DIPC   D3A 8011  29.828  16.664   4.915 -0.0124  0.1308 -0.1694
    1DIPC   C4A 8012   0.066  16.205   5.019  0.1449  0.0848 -0.2005
    1DIPC   C1B 8013  29.346  16.956   5.571  0.0551 -0.0590  0.1197
    1DIPC   D2B 8014  29.123  17.138   5.175  0.2820 -0.3357 -0.1154
    1DIPC   D3B 8015  29.087  16.849   4.956 -0.3357 -0.0397 -0.2703
    1DIPC   C4B 8016  29.326  16.567   4.988 -0.2309  0.0651  0.2893
    1DIPC   NC3 8017  13.318   1.676   7.440  0.0806  0.2903 -0.2184
    1DIPC   PO4 8018  13.321   2.152   7.491  0.4186  0.0619 -0.2623
    1DIPC   GL1 8019  13.213   2.167   7.149 -0.2420 -0.2762 -0.0529
    1DIPC   GL2 8020  13.425   1.943   7.017 -0.1200  0.1098 -0.1116
    1DIPC   C1A 8021  12.971   2.208   6.761  0.1337  0.0341 -0.4443
    1DIPC   D2A 8022  12.595   2.329   6.738  0.0501  0.0448 -0.1460
    1DIPC   D3A 8023  12.630   2.152   6.350 -0.0075 -0.3786 -0.1328
    1DIPC   C4A 8024  12.376   2.119   6.004  0.4710 -0.0951  0.0004
    1DIPC   C1B 8025  13.726   1.720   6.726  0.0445  0.1509  0.0830
    1DIPC   D2B 8026  13.994   1.715   6.312  0.0236  0.1625  0.1662
    1DIPC   D3B 8027  14.398   1.935   6.179 -0.1218 -0.1060  0.0163
    1DIPC   C4B 8028  14.843   2.086   6.123  0.0059 -0.0135  0.0069
    1DIPC   NC3 8029  22.314  26.301   6.653  0.1511 -0.0356 -0.1495
    1DIPC   PO4 8030  22.037  26.358   6.260  0.0562 -0.0931  0.0489
    1DIPC   GL1 8031  21.929  26.130   5.857 -0.1197  0.4125  0.2209
    1DIPC   GL2 8032  21.640  26.223   5.649 -0.1032  0.0036  0.0051
    1DIPC   C1A 8033  22.042  26.064   5.324  0.2392 -0.0640 -0.0864
    1DIPC   D2A 8034  22.135  26.089   4.879 -0.0754 -0.2238 -0.3502
    1DIPC   D3A 8035  21.800  26.378   4.896 -0.3263 -0.2879  0.1324
    1DIPC   C4A 8036  21.466  26.215   4.617 -0.3060 -0.1279  0.0513
    1DIPC   C1B 8037  21.534  26.187   5.218  0.3404 -0.2757 -0.1474
    1DIPC   D2B 8038  21.118  26.398   5.026  0.1947 -0.0026 -0.1164
    1DIPC   D3B 8039  21.017  26.097   4.733 -0.0944 -0.2297  0.1703
    1DIPC   C4B 8040  20.606  26.041   4.533  0.1845  0.0875  0.1511
    1DIPC   NC3 8041   2.551   5.657   6.708  0.3809  0.0212 -0.1086
    1DIPC   PO4 8042   3.063   5.660   6.565  0.0354 -0.0614  0.0914
    1DIPC   GL1 8043   3.073   5.338   6.333 -0.0066 -0.3336 -0.1687
    1DIPC   GL2 8044   2.724   5.240   6.413  0.0957  0.0145 -0.1548
    1DIPC   C1A 8045   3.231   5.061   6.144  0.0910  0.2926 -0.1764
    1DIPC   D2A 8046   3.536   4.892   5.939  0.3765 -0.1902  0.0738
    1DIPC   D3A 8047   3.558   5.199   5.721 -0.0859  0.0119 -0.2253
    1DIPC   C4A 8048   3.208   5.259   5.487 -0.0950  0.1887 -0.2591
    1DIPC   C1B 8049   2.611   5.043   6.074  0.3315  0.1874  0.2504
    1DIPC   D2B 8050   2.461   4.704   5.808 -0.1384  0.3439  0.4311
    1DIPC   D3B 8051   2.247   5.062   5.708  0.1067 -0.1305  0.3142
    1DIPC   C4B 8052   2.004   5.187   5.268 -0.0330  0.0210  0.1251
    1DIPC   NC3 8053  21.535   3.706   7.733  0.0015 -0.0049 -0.0469
    1DIPC   PO4 8054  21.977   3.484   7.868  0.0758 -0.0654 -0.1869
    1DIPC   GL1 8055  21.884   3.594   7.383 -0.1395  0.3390 -0.2411
    1DIPC   GL2 8056  21.607   3.587   7.282  0.1190 -0.0133  0.1132
    1DIPC   C1A 8057  22.078   3.857   7.181 -0.1723 -0.0392  0.0767
    1DIPC   D2A 8058  22.435   3.915   6.928 -0.0256 -0.1175 -0.1076
    1DIPC   D3A 8059  22.490   4.215   7.246 -0.0800  0.0179  0.2062
    1DIPC   C4A 8060  22.193   4.432   7.199 -0.0095 -0.0261  0.2535
    1DIPC   C1B 8061  21.559   3.702   6.885  0.0736  0.1218 -0.1809
    1DIPC   D2B 8062  21.567   4.148   6.667 -0.4596 -0.0619 -0.0101
    1DIPC   D3B 8063  21.461   3.885   6.289 -0.0572 -0.0873 -0.0966
    1DIPC   C4B 8064  21.503   4.124   5.908  0.1441 -0.0568  0.0204
    1DIPC   NC3 8065   2.403  20.562   6.476  0.1777  0.4560 -0.2256
    1DIPC   PO4 8066   2.056  20.588   6.138 -0.0060  0.0367 -0.2472
    1DIPC   GL1 8067   1.982  20.392   5.707  0.1658  0.2374 -0.3660
    1DIPC   GL2 8068   2.153  20.102   5.754 -0.1046 -0.2137 -0.3628
    1DIPC   C1A 8069   2.058  20.262   5.247 -0.0826  0.0631 -0.0544
    1DIPC   D2A 8070   1.885  20.157   4.907 -0.1420 -0.0904  0.1354
    1DIPC   D3A 8071   1.557  19.945   4.837 -0.2536  0.0750  0.2661
    1DIPC   C4A 8072   1.039  20.080   4.868  0.0078  0.0678  0.4130
    1DIPC   C1B 8073   2.494  19.978   5.518 -0.4238  0.1186  0.1077
    1DIPC   D2B 8074   2.579  19.563   5.335 -0.1635 -0.0994  0.6377
    1DIPC   D3B 8075   2.796  19.267   5.184  0.1354 -0.3932  0.2425
    1DIPC   C4B 8076   2.597  18.913   4.909  0.1862  0.2115  0.1162
    1DIPC   NC3 8077   8.218  29.349   6.485 -0.1141  0.3378 -0.3199
    1DIPC   PO4 8078   7.892  29.132   6.567  0.3642  0.0325  0.2406
    1DIPC   GL1 8079   7.770  29.325   6.145  0.1503  0.0273  0.1790
    1DIPC   GL2 8080   7.687  29.675   6.035  0.0626 -0.0744  0.2218
    1DIPC   C1A 8081   7.543  29.203   5.757  0.1157 -0.2534 -0.1609
    1DIPC   D2A 8082   7.617  29.429   5.377 -0.3061  0.3243 -0.0802
    1DIPC   D3A 8083   7.754  29.377   4.976  0.3150  0.1715 -0.1494
    1DIPC   C4A 8084   7.561  29.607   4.633  0.1667  0.0636 -0.0633
    1DIPC   C1B 8085   7.872  29.780   5.626  0.0742  0.1231  0.0753
    1DIPC   D2B 8086   7.933   0.372   5.482 -0.0723  0.0013 -0.0105
    1DIPC   D3B 8087   7.482   0.387   5.542 -0.1464  0.1819  0.1645
    1DIPC   C4B 8088   7.402   0.546   5.088  0.2593  0.0993 -0.0597
    1DIPC   NC3 8089   7.152  17.485   6.394 -0.4511 -0.0427  0.2285
    1DIPC   PO4 8090   6.738  17.728   6.093  0.0387  0.2323 -0.1360
    1DIPC   GL1 8091   6.361  17.673   5.803  0.3253 -0.2033  0.2561
    1DIPC   GL2 8092   6.577  17.527   5.640 -0.0549  0.2569 -0.1055
    1DIPC   C1A 8093   6.210  17.772   5.430  0.0268 -0.0750 -0.3715
    1DIPC   D2A 8094   6.120  17.691   4.996 -0.1155 -0.0581 -0.0672
    1DIPC   D3A 8095   6.210  18.052   5.048  0.0841  0.1482  0.2209
    1DIPC   C4A 8096   6.205  18.243   4.735 -0.1175 -0.1213 -0.0591
    1DIPC   C1B 8097   6.647  17.748   5.217 -0.0814  0.0242 -0.1432
    1DIPC   D2B 8098   6.910  17.565   4.926  0.1928 -0.2186  0.0923
    1DIPC   D3B 8099   6.868  17.303   5.354 -0.1225  0.2195 -0.1586
    1DIPC   C4B 8100   6.735  16.877   5.216 -0.1440 -0.1226  0.1993
    1DIPC   NC3 8101   5.567  26.107   5.791  0.3054 -0.1258  0.0370
    1DIPC   PO4 8102   5.189  25.857   5.631 -0.1653  0.0395 -0.2999
    1DIPC   GL1 8103   5.325  25.643   5.205 -0.0261  0.0869 -0.3381
    1DIPC   GL2 8104   5.726  25.538   5.107 -0.2567  0.0734  0.0380
    1DIPC   C1A 8105   5.216  25.339   4.969  0.1739  0.2723 -0.0626
    1DIPC   D2A 8106   5.423  25.219   4.640 -0.1115  0.0099 -0.1313
    1DIPC   D3A 8107   5.262  25.257   4.273  0.4460  0.2240  0.0647
    1DIPC   C4A 8108   5.481  25.323   3.845 -0.0189  0.0195 -0.0961
    1DIPC   C1B 8109   5.651  25.690   4.682 -0.0030 -0.0670 -0.0166
    1DIPC   D2B 8110   5.607  25.661   4.291 -0.0229  0.1043  0.2676
    1DIPC   D3B 8111   5.837  25.722   4.053 -0.0588 -0.0357  0.0996
    1DIPC   C4B 8112   6.003  25.606   3.614  0.1244 -0.3300  0.0371
    1DIPC   NC3 8113  11.203  14.604   6.691 -0.2932  0.1345 -0.0502
    1DIPC   PO4 8114  11.273  14.449   6.277  0.3259  0.0753  0.1329
    1DIPC   GL1 8115  11.399  14.719   5.946 -0.1515 -0.0998  0.2675
    1DIPC   GL2 8116  11.670  14.790   5.861  0.0644  0.1385  0.3249
    1DIPC   C1A 8117  11.348  14.571   5.549 -0.2724 -0.0982  0.0707
    1DIPC   D2A 8118  11.614  14.263   5.493  0.0041  0.0777 -0.0763
    1DIPC   D3A 8119  11.735  14.375   5.061 -0.0336  0.1150 -0.1745
    1DIPC   C4A 8120  11.943  14.592   4.759  0.2971 -0.1873  0.2734
    1DIPC   C1B 8121  11.842  14.689   5.523 -0.2536  0.2488  0.2942
    1DIPC   D2B 8122  12.012  14.860   5.153 -0.1544  0.0329  0.0794
    1DIPC   D3B 8123  12.212  15.114   4.885 -0.1397 -0.1232  0.0244
    1DIPC   C4B 8124  12.192  14.950   4.476 -0.0177 -0.0997 -0.0441
    1DIPC   NC3 8125   3.986  15.181   6.479  0.1752  0.2496  0.4572
    1DIPC   PO4 8126   4.085  14.761   6.595  0.0065  0.0964 -0.1828
    1DIPC   GL1 8127   4.096  14.781   6.164  0.1056 -0.2496  0.1842
    1DIPC   GL2 8128   3.887  14.561   5.974  0.0200 -0.0092  0.1250
    1DIPC   C1A 8129   4.339  14.784   5.800 -0.2798 -0.2375 -0.0144
    1DIPC   D2A 8130   4.285  14.617   5.437 -0.0629  0.3381  0.2473
    1DIPC   D3A 8131   3.934  14.358   5.432  0.1211  0.2265  0.1741
    1DIPC   C4A 8132   3.676  14.532   5.218  0.0588 -0.1705 -0.3555
    1DIPC   C1B 8133   3.891  14.785   5.627  0.0179  0.0937  0.0068
    1DIPC   D2B 8134   3.991  15.017   5.279  0.1195  0.1517  0.1308
    1DIPC   D3B 8135   3.814  15.379   5.306 -0.2947  0.2635  0.2746
    1DIPC   C4B 8136   3.433  15.623   5.039  0.2265  0.1118 -0.2311
    1DIPC   NC3 8137   0.048  27.722   5.990 -0.0902  0.3076 -0.0088
    1DIPC   PO4 8138   0.324  28.051   5.750  0.1809 -0.0719  0.3033
    1DIPC   GL1 8139   0.371  27.639   5.517  0.2222 -0.2501 -0.0438
    1DIPC   GL2 8140   0.245  27.377   5.550 -0.0079  0.1034 -0.1415
    1DIPC   C1A 8141   0.665  27.575   5.168 -0.3600  0.1044  0.2478
    1DIPC   D2A 8142   0.947  27.392   4.720 -0.1060  0.4099  0.0476
    1DIPC   D3A 8143   1.152  27.781   4.480  0.1014 -0.1859 -0.0590
    1DIPC   C4A 8144   1.257  27.823   4.045 -0.3461  0.3345  0.2155
    1DIPC   C1B 8145   0.073  27.394   5.160  0.0685  0.0162 -0.1768
    1DIPC   D2B 8146   0.254  27.557   4.762  0.1013 -0.2021 -0.1735
    1DIPC   D3B 8147   0.507  27.871   4.818  0.0330 -0.0519  0.2114
    1DIPC   C4B 8148   0.616  28.043   4.395 -0.1399  0.1652  0.0258
    1DIPC   NC3 8149   4.674   2.252   6.541  0.0966 -0.3939 -0.2112
    1DIPC   PO4 8150   4.518   2.706   6.696 -0.1922  0.1851  0.0707
    1DIPC   GL1 8151   4.571   2.870   6.335 -0.0185 -0.2713 -0.1104
    1DIPC   GL2 8152   4.865   3.150   6.204  0.0575  0.0726 -0.1304
    1DIPC   C1A 8153   4.397   3.249   5.988 -0.3412 -0.0480  0.2840
    1DIPC   D2A 8154   4.398   3.183   5.552  0.1752  0.0628  0.0251
    1DIPC   D3A 8155   4.586   3.217   5.133 -0.1584  0.1441  0.0602
    1DIPC   C4A 8156   4.531   3.590   5.000 -0.0852  0.0389 -0.0857
    1DIPC   C1B 8157   4.813   3.042   5.871 -0.1125  0.1151  0.1688
    1DIPC   D2B 8158   4.936   3.121   5.484  0.0998 -0.2311 -0.0642
    1DIPC   D3B 8159   4.983   2.873   5.133  0.1681  0.1092 -0.0246
    1DIPC   C4B 8160   5.378   2.597   5.096 -0.0417 -0.2100 -0.0298
    1DIPC   NC3 8161   9.880  14.900   6.341  0.1717  0.1173  0.0870
    1DIPC   PO4 8162   9.561  14.736   6.181  0.1704  0.1983  0.1174
    1DIPC   GL1 8163   9.478  14.731   5.774  0.0223 -0.1266 -0.0953
    1DIPC   GL2 8164   9.831  14.608   5.780  0.0198 -0.0867  0.0315
    1DIPC   C1A 8165   9.276  14.619   5.594 -0.0051  0.1858  0.2790
    1DIPC   D2A 8166   9.288  14.421   5.142 -0.0840  0.0099 -0.4020
    1DIPC   D3A 8167   9.152  13.952   5.037 -0.1633 -0.0436  0.1611
    1DIPC   C4A 8168   9.346  13.679   4.833 -0.0200 -0.1224  0.1915
    1DIPC   C1B 8169   9.739  14.570   5.390  0.1116  0.0690 -0.2351
    1DIPC   D2B 8170   9.862  14.584   5.015  0.2893  0.0737 -0.2067
    1DIPC   D3B 8171  10.122  14.804   4.634 -0.1912  0.0407  0.0241
    1DIPC   C4B 8172   9.957  14.907   4.174  0.1399  0.0265 -0.0322
    1DIPC   NC3 8173   5.244   7.345   6.583  0.1448 -0.1968 -0.0424
    1DIPC   PO4 8174   5.080   7.078   6.297 -0.0588  0.1589 -0.0846
    1DIPC   GL1 8175   4.892   7.289   6.041 -0.0651  0.1056  0.0823
    1DIPC   GL2 8176   4.600   7.054   5.915 -0.1759 -0.1067  0.0511
    1DIPC   C1A 8177   4.753   7.718   6.145 -0.1650  0.2215 -0.0994
    1DIPC   D2A 8178   4.392   8.058   5.993  0.1285 -0.0233  0.2278
    1DIPC   D3A 8179   4.447   7.934   5.530  0.2480 -0.0146 -0.3741
    1DIPC   C4A 8180   4.185   7.923   5.103  0.1900 -0.2554 -0.4470
    1DIPC   C1B 8181   4.631   7.006   5.515  0.0425  0.0171  0.3519
    1DIPC   D2B 8182   4.537   7.177   5.056  0.0657  0.1481  0.0871
    1DIPC   D3B 8183   4.594   6.750   5.093  0.1636 -0.0118 -0.1953
    1DIPC   C4B 8184   4.755   6.519   4.753 -0.2001 -0.2027 -0.0531
    1DIPC   NC3 8185   4.211  24.976   5.797  0.0501 -0.1798 -0.0963
    1DIPC   PO4 8186   4.545  24.842   5.552 -0.3379 -0.0880 -0.0513
    1DIPC   GL1 8187   4.148  24.936   5.305 -0.0828 -0.0994 -0.3670
    1DIPC   GL2 8188   4.132  24.750   5.125 -0.0888  0.2261  0.1292
    1DIPC   C1A 8189   4.239  25.196   4.871  0.2059  0.1409 -0.1514
    1DIPC   D2A 8190   4.512  25.243   4.464 -0.4185 -0.2842  0.1489
    1DIPC   D3A 8191   4.350  24.804   4.382  0.0095  0.0702  0.1989
    1DIPC   C4A 8192   4.682  24.548   4.626  0.0769 -0.1156 -0.0986
    1DIPC   C1B 8193   3.960  24.666   4.671 -0.0402 -0.0466  0.0576
    1DIPC   D2B 8194   3.570  24.515   4.503  0.0331  0.0371 -0.0251
    1DIPC   D3B 8195   3.220  24.679   4.576  0.4675  0.0219 -0.3144
    1DIPC   C4B 8196   3.108  24.616   4.936 -0.0112 -0.2003  0.3544
    1DIPC   NC3 8197   3.491   3.542   7.062  0.0799  0.0113 -0.0100
    1DIPC   PO4 8198   3.142   3.543   6.752  0.3196  0.1907  0.2682
    1DIPC   GL1 8199   3.105   3.516   6.277 -0.0929 -0.0272  0.0550
    1DIPC   GL2 8200   2.833   3.250   6.254  0.0934 -0.2437 -0.0056
    1DIPC   C1A 8201   3.332   3.373   5.910 -0.1405  0.0861  0.0507
    1DIPC   D2A 8202   3.452   3.380   5.501  0.0039 -0.1572  0.2431
    1DIPC   D3A 8203   2.997   3.483   5.483  0.0463 -0.2394 -0.1309
    1DIPC   C4A 8204   2.691   3.496   5.223 -0.1269 -0.1671  0.2544
    1DIPC   C1B 8205   2.908   3.162   5.862  0.1642 -0.0416 -0.2184
    1DIPC   D2B 8206   2.869   2.989   5.478  0.2093 -0.0472  0.2706
    1DIPC   D3B 8207   2.496   2.786   5.358  0.0046 -0.0030  0.1134
    1DIPC   C4B 8208   2.352   2.635   4.937 -0.0276  0.3685  0.0155
    1DIPC   NC3 8209  11.664  25.715   6.483  0.1096 -0.2094  0.1586
    1DIPC   PO4 8210  11.880  25.886   6.099  0.1158 -0.1760 -0.0920
    1DIPC   GL1 8211  11.771  26.153   5.777  0.0903 -0.0072 -0.2186
    1DIPC   GL2 8212  12.096  26.470   5.717  0.1708  0.0649  0.0879
    1DIPC   C1A 8213  11.932  26.169   5.336 -0.0241 -0.4831  0.0486
    1DIPC   D2A 8214  11.856  26.032   4.866 -0.0616 -0.2200 -0.2773
    1DIPC   D3A 8215  12.063  25.768   4.526  0.1008  0.0436 -0.1331
    1DIPC   C4A 8216  11.903  25.326   4.481 -0.1528  0.2392 -0.0269
    1DIPC   C1B 8217  12.406  26.752   5.420 -0.2037  0.1939  0.1585
    1DIPC   D2B 8218  12.699  26.898   5.123  0.1565  0.1317  0.2881
    1DIPC   D3B 8219  12.440  26.758   4.893  0.0425 -0.1095  0.4365
    1DIPC   C4B 8220  12.111  26.526   5.067  0.1897 -0.1135 -0.1815
    1DIPC   NC3 8221  22.777   6.764   7.790 -0.1482  0.3651 -0.0540
    1DIPC   PO4 8222  22.831   7.140   7.740  0.0246 -0.0601 -0.2818
    1DIPC   GL1 8223  22.696   7.277   7.252 -0.1968 -0.0977 -0.0413
    1DIPC   GL2 8224  22.539   7.508   7.121 -0.1030  0.1271 -0.1277
    1DIPC   C1A 8225  23.015   7.254   6.956  0.0249 -0.2217  0.2423
    1DIPC   D2A 8226  23.332   7.090   6.714 -0.0588  0.0885  0.1582
    1DIPC   D3A 8227  23.338   6.623   6.612 -0.0158 -0.3384 -0.0462
    1DIPC   C4A 8228  23.511   6.435   6.184 -0.0555  0.0045  0.0922
    1DIPC   C1B 8229  22.546   7.268   6.662 -0.2316  0.1526 -0.0664
    1DIPC   D2B 8230  22.366   6.973   6.381 -0.0558  0.1425 -0.1962
    1DIPC   D3B 8231  22.282   7.441   6.149 -0.1077  0.1536 -0.0508
    1DIPC   C4B 8232  22.691   7.569   6.056  0.1284 -0.0821 -0.0577
    1DIPC   NC3 8233   8.354  11.979   6.111  0.0773 -0.1731  0.0785
    1DIPC   PO4 8234   8.021  11.872   6.332  0.1288  0.2994  0.3646
    1DIPC   GL1 8235   7.935  11.721   5.987  0.3002 -0.1360  0.2410
    1DIPC   GL2 8236   7.808  11.394   5.993  0.0193  0.1160 -0.0493
    1DIPC   C1A 8237   7.851  11.856   5.592 -0.0641 -0.0611 -0.0394
    1DIPC   D2A 8238   7.654  11.748   5.213  0.2996  0.0434  0.0855
    1DIPC   D3A 8239   7.471  11.363   5.311  0.2066 -0.0096  0.0404
    1DIPC   C4A 8240   7.409  11.329   5.720  0.3823 -0.0531  0.0781
    1DIPC   C1B 8241   7.929  11.352   5.585 -0.2235  0.1374  0.1305
    1DIPC   D2B 8242   8.180  11.098   5.345  0.1013  0.0309  0.0296
    1DIPC   D3B 8243   8.137  10.857   5.103  0.1473 -0.2653  0.1486
    1DIPC   C4B 8244   8.323  11.126   4.754 -0.0780 -0.0293  0.1607
    1DIPC   NC3 8245  27.491   4.478   6.428 -0.4218 -0.1248  0.2435
    1DIPC   PO4 8246  27.679   4.147   6.565 -0.3295  0.2609  0.1898
    1DIPC   GL1 8247  27.780   4.202   6.100  0.3661  0.1431 -0.0311
    1DIPC   GL2 8248  27.979   3.931   5.989 -0.1724  0.1436  0.2549
    1DIPC   C1A 8249  27.897   4.565   5.827  0.3699  0.1896  0.4373
    1DIPC   D2A 8250  27.749   4.786   5.458 -0.1637  0.2502 -0.1327
    1DIPC   D3A 8251  27.533   4.682   5.121  0.0540  0.1532  0.1916
    1DIPC   C4A 8252  27.164   4.968   5.096 -0.4574 -0.1829 -0.1012
    1DIPC   C1B 8253  27.836   3.920   5.568  0.2085  0.3136 -0.4507
    1DIPC   D2B 8254  27.408   3.854   5.315  0.1936 -0.2164  0.1283
    1DIPC   D3B 8255  27.573   3.787   4.875 -0.1369 -0.1170  0.2528
    1DIPC   C4B 8256  27.902   3.364   4.749  0.0507  0.2500 -0.0048
    1DIPC   NC3 8257  28.112  11.852   6.841  0.0221 -0.1750  0.3409
    1DIPC   PO4 8258  28.375  11.531   6.989 -0.0956 -0.0162 -0.1293
    1DIPC   GL1 8259  28.186  11.502   6.471  0.0080  0.1404 -0.0802
    1DIPC   GL2 8260  28.188  11.814   6.309  0.1719  0.0067 -0.0885
    1DIPC   C1A 8261  27.922  11.428   6.114 -0.4002  0.0142 -0.0615
    1DIPC   D2A 8262  28.045  11.513   5.676  0.3340 -0.2136 -0.1480
    1DIPC   D3A 8263  27.833  11.568   5.368  0.1198 -0.1307  0.3030
    1DIPC   C4A 8264  27.951  11.958   5.155 -0.1261  0.0545  0.4500
    1DIPC   C1B 8265  28.434  11.613   6.071 -0.2055  0.1803  0.0425
    1DIPC   D2B 8266  28.793  11.308   6.019 -0.0955  0.1254  0.0582
    1DIPC   D3B 8267  28.700  11.448   5.590  0.1274  0.1688  0.0600
    1DIPC   C4B 8268  28.346  11.730   5.362 -0.2136 -0.2103 -0.1167
    1DIPC   NC3 8269  22.966  25.740   6.424  0.0247  0.5334 -0.1997
    1DIPC   PO4 8270  23.282  25.574   6.762  0.0491  0.3663 -0.0657
    1DIPC   GL1 8271  23.504  25.761   6.277 -0.1546 -0.1258  0.1341
    1DIPC   GL2 8272  23.227  25.923   6.020 -0.1692 -0.0306 -0.2084
    1DIPC   C1A 8273  23.864  25.572   6.014  0.1654  0.1155 -0.0740
    1DIPC   D2A 8274  24.269  25.328   5.778  0.1455  0.0833 -0.1993
    1DIPC   D3A 8275  23.846  25.187   5.579 -0.3319 -0.3172 -0.1221
    1DIPC   C4A 8276  23.772  25.305   5.172 -0.0736  0.0231 -0.2873
    1DIPC   C1B 8277  23.047  26.173   5.656  0.1489 -0.0431 -0.2134
    1DIPC   D2B 8278  23.078  26.164   5.230  0.0474  0.0134 -0.3138
    1DIPC   D3B 8279  22.881  25.721   5.116  0.3034 -0.0479 -0.2639
    1DIPC   C4B 8280  22.688  25.415   5.438  0.0966 -0.1466 -0.1481
    1DIPC   NC3 8281  22.255  23.489   6.120  0.0257  0.1701 -0.1897
    1DIPC   PO4 8282  22.521  23.822   6.207 -0.3728  0.1859 -0.2237
    1DIPC   GL1 8283  22.661  23.825   5.846 -0.0391 -0.1053 -0.0572
    1DIPC   GL2 8284  22.598  23.516   5.719 -0.1364  0.1355  0.3255
    1DIPC   C1A 8285  23.008  23.759   5.561  0.1071  0.2675 -0.1444
    1DIPC   D2A 8286  23.100  23.679   5.112  0.0404  0.3521 -0.2474
    1DIPC   D3A 8287  23.014  23.949   4.736  0.0165 -0.0244 -0.0049
    1DIPC   C4A 8288  23.114  24.419   4.712 -0.2746  0.0183  0.1172
    1DIPC   C1B 8289  22.777  23.266   5.354 -0.2350 -0.1389 -0.1955
    1DIPC   D2B 8290  22.731  23.201   4.963 -0.1415  0.0600  0.0597
    1DIPC   D3B 8291  22.730  23.494   4.667  0.1780 -0.1039 -0.1118
    1DIPC   C4B 8292  22.795  23.494   4.233 -0.1867 -0.3175  0.1272
    1DIPC   NC3 8293  11.204   2.223   7.316 -0.0612  0.1560  0.2556
    1DIPC   PO4 8294  10.827   2.329   7.220 -0.0319 -0.0221 -0.1496
    1DIPC   GL1 8295  10.936   2.441   6.817  0.2955  0.1301  0.2008
    1DIPC   GL2 8296  10.821   2.281   6.664 -0.1724  0.1411 -0.0156
    1DIPC   C1A 8297  11.289   2.368   6.516 -0.0278  0.1628  0.1505
    1DIPC   D2A 8298  11.548   2.277   6.122  0.1384 -0.0547 -0.0566
    1DIPC   D3A 8299  11.381   2.478   5.840  0.0236 -0.1237 -0.1515
    1DIPC   C4A 8300  11.528   2.859   5.755 -0.0435 -0.0420  0.0171
    1DIPC   C1B 8301  10.376   2.216   6.541  0.1005  0.2309  0.0205
    1DIPC   D2B 8302   9.998   1.942   6.315  0.2152  0.3078 -0.2580
    1DIPC   D3B 8303  10.106   1.390   6.251 -0.1005  0.0281  0.4244
    1DIPC   C4B 8304   9.935   1.065   6.483  0.2720  0.1259 -0.5288
    1DIPC   NC3 8305   7.777  28.129   6.699 -0.4320  0.0144 -0.0538
    1DIPC   PO4 8306   7.706  28.354   6.340 -0.2240 -0.1988 -0.4659
    1DIPC   GL1 8307   7.812  28.467   5.948 -0.1971 -0.0602  0.1384
    1DIPC   GL2 8308   7.677  28.201   5.741 -0.2278 -0.0192 -0.0196
    1DIPC   C1A 8309   7.863  28.872   5.770 -0.2653 -0.2110  0.0956
    1DIPC   D2A 8310   8.095  29.074   5.520 -0.0631 -0.1529  0.3715
    1DIPC   D3A 8311   7.901  28.928   5.247 -0.0505 -0.0787  0.0954
    1DIPC   C4A 8312   7.980  28.572   5.046  0.1921  0.1518 -0.0340
    1DIPC   C1B 8313   7.728  28.495   5.432 -0.1749 -0.2370  0.0617
    1DIPC   D2B 8314   7.454  28.554   5.057 -0.0582 -0.4509 -0.3279
    1DIPC   D3B 8315   7.564  28.926   4.881  0.1880  0.0330  0.2434
    1DIPC   C4B 8316   7.522  29.130   4.528 -0.2840 -0.2482 -0.1178
    1DIPC   NC3 8317  13.542  15.748   6.219  0.4558 -0.1642 -0.0779
    1DIPC   PO4 8318  13.141  15.473   6.399  0.2309 -0.0821  0.2073
    1DIPC   GL1 8319  13.086  15.445   5.969 -0.2338  0.1972  0.1277
    1DIPC   GL2 8320  13.399  15.590   5.758  0.2443 -0.0452 -0.1171
    1DIPC   C1A 8321  12.961  15.739   5.638 -0.0868  0.1150 -0.3093
    1DIPC   D2A 8322  12.674  15.935   5.341 -0.3756 -0.0760 -0.0653
    1DIPC   D3A 8323  12.624  15.578   4.995 -0.4664 -0.2254  0.1018
    1DIPC   C4A 8324  12.510  15.712   4.576 -0.1695  0.0167  0.1675
    1DIPC   C1B 8325  13.684  15.515   5.473 -0.2887 -0.0109  0.1940
    1DIPC   D2B 8326  13.830  15.593   5.114  0.0735  0.0666  0.0841
    1DIPC   D3B 8327  13.529  15.566   4.856 -0.2879  0.1586 -0.0099
    1DIPC   C4B 8328  13.589  15.363   4.439  0.0880  0.0109 -0.2377
    1DIPC   NC3 8329  23.190  20.571   6.693  0.1418 -0.1615  0.0056
    1DIPC   PO4 8330  23.178  20.969   6.567  0.0661 -0.2203  0.0493
    1DIPC   GL1 8331  23.363  21.163   6.279  0.0070  0.0056 -0.0816
    1DIPC   GL2 8332  23.284  21.064   5.868 -0.0310  0.0024 -0.0595
    1DIPC   C1A 8333  23.687  21.292   6.008  0.1321 -0.1663  0.3592
    1DIPC   D2A 8334  23.989  21.337   5.663 -0.0504  0.1193 -0.0377
    1DIPC   D3A 8335  24.144  21.205   5.187  0.0293  0.2285  0.0374
    1DIPC   C4A 8336  23.973  21.521   4.803  0.1150  0.2713  0.1004
    1DIPC   C1B 8337  23.682  21.000   5.510 -0.3215  0.1757  0.2498
    1DIPC   D2B 8338  23.962  20.638   5.427 -0.0624 -0.1165  0.0878
    1DIPC   D3B 8339  23.903  20.649   4.939 -0.0019 -0.0245  0.0346
    1DIPC   C4B 8340  24.105  21.025   4.724 -0.0401  0.2378  0.1150
    1DIPC   NC3 8341  25.965   3.801   7.271 -0.0658  0.1110  0.1291
    1DIPC   PO4 8342  25.599   4.021   7.238  0.1053  0.1257  0.2713
    1DIPC   GL1 8343  25.498   4.370   6.830  0.0920  0.3407  0.1474
    1DIPC   GL2 8344  25.670   4.711   6.741 -0.1796 -0.2424 -0.2514
    1DIPC   C1A 8345  25.301   4.498   6.452 -0.0266 -0.2478 -0.1142
    1DIPC   D2A 8346  25.160   4.387   6.057  0.0626 -0.2438 -0.1046
    1DIPC   D3A 8347  24.792   4.393   5.775 -0.0199 -0.2048  0.0953
    1DIPC   C4A 8348  24.907   4.249   5.433  0.2115  0.3493 -0.1019
    1DIPC   C1B 8349  25.809   4.416   6.426 -0.0220 -0.1574 -0.1022
    1DIPC   D2B 8350  25.857   4.036   6.354 -0.1234  0.2111 -0.2096
    1DIPC   D3B 8351  25.855   3.890   5.915  0.0400  0.1225  0.0467
    1DIPC   C4B 8352  25.818   3.947   5.474 -0.1861 -0.0931 -0.1288
    1DIPC   NC3 8353  28.448  28.996   6.078 -0.2597 -0.1265  0.2292
    1DIPC   PO4 8354  28.084  28.757   6.011 -0.2116 -0.0031 -0.2126
    1DIPC   GL1 8355  28.316  28.718   5.645  0.2022 -0.0082  0.1333
    1DIPC   GL2 8356  28.532  28.930   5.568 -0.2401 -0.3072  0.0674
    1DIPC   C1A 8357  28.170  28.613   5.285  0.0524  0.1533 -0.1380
    1DIPC   D2A 8358  28.245  28.540   4.776  0.2419  0.0777  0.1024
    1DIPC   D3A 8359  28.376  28.177   4.507 -0.2586  0.0528 -0.0401
    1DIPC   C4A 8360  28.440  28.348   4.103  0.0901  0.0519 -0.2126
    1DIPC   C1B 8361  28.744  28.772   5.163 -0.3066 -0.3246  0.0695
    1DIPC   D2B 8362  28.886  28.673   4.878  0.0496  0.3089  0.3209
    1DIPC   D3B 8363  28.739  28.653   4.471 -0.2740  0.0426 -0.0590
    1DIPC   C4B 8364  28.444  28.843   4.383 -0.0635 -0.2566 -0.0236
    1DIPC   NC3 8365  17.278   1.397   7.525  0.0077  0.3043  0.0747
    1DIPC   PO4 8366  16.886   1.512   7.537  0.4723 -0.1675  0.3426
    1DIPC   GL1 8367  17.068   1.590   7.141  0.0299  0.0108 -0.2104
    1DIPC   GL2 8368  17.206   1.246   7.056  0.0447  0.0681 -0.0047
    1DIPC   C1A 8369  17.305   1.612   6.646 -0.1924  0.1321 -0.2259
    1DIPC   D2A 8370  17.252   1.542   6.149  0.0772 -0.2716 -0.0912
    1DIPC   D3A 8371  17.539   1.247   6.286  0.0782 -0.0309  0.0952
    1DIPC   C4A 8372  17.524   0.845   6.212 -0.0433 -0.0036 -0.1593
    1DIPC   C1B 8373  17.569   1.145   6.747  0.3706 -0.0024 -0.0395
    1DIPC   D2B 8374  17.878   0.917   6.565  0.2869  0.1148  0.0923
    1DIPC   D3B 8375  18.188   1.006   6.188 -0.1413 -0.1555  0.2498
    1DIPC   C4B 8376  18.404   1.392   6.206 -0.0984 -0.2829 -0.0597
    1DIPC   NC3 8377   5.427  23.385   5.851  0.1436  0.1104 -0.0018
    1DIPC   PO4 8378   5.728  23.747   5.745  0.0477 -0.0953 -0.1389
    1DIPC   GL1 8379   5.659  23.895   5.359  0.3194 -0.0081 -0.2104
    1DIPC   GL2 8380   5.584  23.698   5.104  0.0996 -0.1783 -0.1434
    1DIPC   C1A 8381   5.851  24.330   5.143 -0.0579  0.0439 -0.0393
    1DIPC   D2A 8382   5.954  24.462   4.697 -0.0843 -0.0441  0.0373
    1DIPC   D3A 8383   6.096  24.085   4.499  0.1657 -0.1064 -0.1485
    1DIPC   C4A 8384   6.540  24.203   4.399 -0.0122 -0.0187  0.0971
    1DIPC   C1B 8385   5.250  23.771   4.839 -0.0443 -0.3367 -0.0743
    1DIPC   D2B 8386   5.065  24.133   4.569 -0.0393  0.0521  0.0041
    1DIPC   D3B 8387   5.536  24.224   4.588  0.0220  0.0118 -0.0857
    1DIPC   C4B 8388   5.749  24.369   4.222 -0.0155 -0.2587 -0.0079
    1DIPC   NC3 8389  25.663  29.337   6.676  0.1471  0.1792 -0.0256
    1DIPC   PO4 8390  25.271  28.955   6.517  0.1902  0.1169  0.0181
    1DIPC   GL1 8391  25.476  29.173   6.221 -0.2696 -0.1525  0.2286
    1DIPC   GL2 8392  25.210  29.255   6.107  0.3035 -0.1077  0.2177
    1DIPC   C1A 8393  25.581  29.290   5.801 -0.0055 -0.1893  0.3424
    1DIPC   D2A 8394  25.494  29.431   5.426 -0.0329  0.1295  0.0773
    1DIPC   D3A 8395  25.390  29.825   5.398 -0.1078  0.3673  0.0989
    1DIPC   C4A 8396  24.994   0.210   5.250 -0.3979 -0.1647 -0.0213
    1DIPC   C1B 8397  25.083  29.137   5.657 -0.1761 -0.0535 -0.0471
    1DIPC   D2B 8398  25.314  28.991   5.260 -0.0734  0.1475  0.0528
    1DIPC   D3B 8399  25.241  29.176   4.862  0.0217 -0.1548 -0.0594
    1DIPC   C4B 8400  25.334  29.609   4.925  0.0253 -0.2737  0.0101
    1DIPC   NC3 8401  28.631  21.528   6.357 -0.0933 -0.1015 -0.1267
    1DIPC   PO4 8402  28.467  21.122   6.290 -0.1406 -0.0270 -0.1158
    1DIPC   GL1 8403  28.468  21.074   5.883  0.1089 -0.2238  0.2874
    1DIPC   GL2 8404  28.716  20.915   5.923  0.0977 -0.2802  0.1537
    1DIPC   C1A 8405  28.254  21.175   5.475  0.1754 -0.0233 -0.1030
    1DIPC   D2A 8406  27.853  21.291   5.292 -0.0650  0.4263  0.3219
    1DIPC   D3A 8407  28.148  21.401   5.011  0.2248 -0.2267 -0.2192
    1DIPC   C4A 8408  28.521  21.619   5.249 -0.1528 -0.0424  0.0509
    1DIPC   C1B 8409  28.729  21.150   5.510  0.1017  0.1246  0.0371
    1DIPC   D2B 8410  28.853  21.029   5.108 -0.2303  0.0244  0.2385
    1DIPC   D3B 8411  28.624  21.214   4.893 -0.0294  0.2515 -0.0501
    1DIPC   C4B 8412  28.706  21.389   4.497  0.0706 -0.2398  0.1130
    1DIPC   NC3 8413   4.578   3.772   6.965  0.0551  0.2020  0.2209
    1DIPC   PO4 8414   4.304   4.004   6.847 -0.1117 -0.1039  0.0704
    1DIPC   GL1 8415   4.181   4.183   6.437 -0.2953 -0.1757 -0.0911
    1DIPC   GL2 8416   3.844   4.368   6.360  0.0698  0.2635  0.0399
    1DIPC   C1A 8417   4.224   4.194   5.950 -0.3362 -0.0479 -0.1010
    1DIPC   D2A 8418   4.049   4.101   5.594 -0.0987  0.1872  0.0128
    1DIPC   D3A 8419   4.112   3.629   5.815 -0.0536 -0.0139 -0.0183
    1DIPC   C4A 8420   4.074   3.563   6.258 -0.1343  0.2275 -0.0742
    1DIPC   C1B 8421   3.814   4.005   6.138  0.0647  0.1979 -0.3588
    1DIPC   D2B 8422   3.650   3.805   5.755 -0.1066  0.4506 -0.2820
    1DIPC   D3B 8423   3.691   3.828   5.281 -0.1495 -0.0356 -0.4322
    1DIPC   C4B 8424   3.774   4.242   4.869 -0.0521 -0.2161 -0.1985
    1DIPC   NC3 8425  22.841  28.210   7.039  0.1015 -0.0454 -0.0474
    1DIPC   PO4 8426  23.002  27.861   6.911  0.3213 -0.1372  0.0831
    1DIPC   GL1 8427  23.087  28.103   6.606  0.0920 -0.0998  0.0317
    1DIPC   GL2 8428  22.769  28.224   6.567  0.0395 -0.2831 -0.1340
    1DIPC   C1A 8429  23.110  28.557   6.276  0.3009  0.3716  0.0104
    1DIPC   D2A 8430  23.375  28.833   6.078 -0.1256 -0.0683  0.0850
    1DIPC   D3A 8431  23.273  29.015   5.699  0.4502  0.0277 -0.1703
    1DIPC   C4A 8432  23.294  28.918   5.196  0.2715 -0.0871 -0.1602
    1DIPC   C1B 8433  22.798  28.014   6.185 -0.0287 -0.0076 -0.2139
    1DIPC   D2B 8434  22.770  27.617   5.931 -0.1118 -0.0358  0.1414
    1DIPC   D3B 8435  23.130  27.747   5.882 -0.2240  0.0684 -0.1519
    1DIPC   C4B 8436  23.533  27.422   5.938 -0.2305 -0.2371  0.1018
    1DIPC   NC3 8437   3.704  18.349   6.757  0.0660 -0.0524 -0.0682
    1DIPC   PO4 8438   3.384  17.987   6.632 -0.0979  0.0226  0.0508
    1DIPC   GL1 8439   3.262  18.124   6.291  0.0378 -0.3089 -0.0217
    1DIPC   GL2 8440   2.918  18.186   6.220 -0.0717 -0.1756  0.0237
    1DIPC   C1A 8441   3.393  18.010   5.772  0.1427 -0.0281 -0.3406
    1DIPC   D2A 8442   3.689  17.867   5.523 -0.1878 -0.0610  0.0899
    1DIPC   D3A 8443   4.068  17.610   5.677  0.2832  0.2672 -0.1129
    1DIPC   C4A 8444   4.450  17.558   5.518  0.2308  0.0843  0.0629
    1DIPC   C1B 8445   2.898  18.062   5.826  0.1648 -0.0404 -0.1157
    1DIPC   D2B 8446   3.048  18.032   5.368 -0.2177 -0.0371  0.2561
    1DIPC   D3B 8447   3.439  17.850   5.131  0.0512 -0.1089 -0.1218
    1DIPC   C4B 8448   3.748  17.947   4.957 -0.2792  0.0335  0.1599
    1DIPC   NC3 8449   4.888   0.757   5.822  0.1145 -0.0544  0.0016
    1DIPC   PO4 8450   4.878   1.194   6.073  0.0106  0.0970  0.1018
    1DIPC   GL1 8451   4.913   1.379   5.622 -0.0781 -0.2887 -0.0901
    1DIPC   GL2 8452   4.842   1.136   5.519 -0.1330 -0.0415  0.1285
    1DIPC   C1A 8453   4.800   1.633   5.395  0.0573  0.2727  0.2437
    1DIPC   D2A 8454   4.648   1.908   5.135 -0.0931 -0.2285 -0.4274
    1DIPC   D3A 8455   4.322   1.648   4.817  0.0565 -0.0654 -0.2223
    1DIPC   C4A 8456   4.296   1.562   4.373 -0.0752  0.1864 -0.3207
    1DIPC   C1B 8457   4.911   1.198   5.112 -0.2000 -0.4115  0.1276
    1DIPC   D2B 8458   4.820   1.549   4.901 -0.1734  0.0505  0.0925
    1DIPC   D3B 8459   5.235   1.679   5.110 -0.2384 -0.1271 -0.0113
    1DIPC   C4B 8460   5.376   1.388   5.351  0.3577 -0.2124  0.5047
    1DIPC   NC3 8461  18.319  14.603   6.948 -0.1639 -0.1344 -0.1158
    1DIPC   PO4 8462  18.742  14.756   6.838  0.2980 -0.0709 -0.1151
    1DIPC   GL1 8463  18.484  14.497   6.493  0.0257  0.0231  0.1244
    1DIPC   GL2 8464  18.581  14.589   6.152 -0.3457  0.2605 -0.1081
    1DIPC   C1A 8465  18.540  14.082   6.320 -0.2821 -0.1477 -0.1714
    1DIPC   D2A 8466  18.298  13.566   6.283 -0.2704  0.1336  0.0772
    1DIPC   D3A 8467  17.880  13.603   6.182 -0.2408 -0.1949 -0.0651
    1DIPC   C4A 8468  18.030  13.477   5.800  0.0804  0.1125 -0.0608
    1DIPC   C1B 8469  18.399  14.766   5.837 -0.3445  0.0452  0.2388
    1DIPC   D2B 8470  18.315  14.695   5.388  0.1288 -0.0259 -0.1099
    1DIPC   D3B 8471  18.670  14.514   5.369  0.2529 -0.2763  0.2095
    1DIPC   C4B 8472  18.755  14.524   4.924  0.1191 -0.1919 -0.0553
    1DIPC   NC3 8473  21.569  23.509   6.477 -0.0668  0.1965 -0.1063
    1DIPC   PO4 8474  21.269  23.624   6.036  0.0258  0.0353  0.0396
    1DIPC   GL1 8475  21.218  23.847   5.583 -0.0645  0.1841 -0.0721
    1DIPC   GL2 8476  21.218  23.556   5.378 -0.0122  0.1429 -0.0551
    1DIPC   C1A 8477  20.987  23.925   5.149 -0.4328 -0.3796 -0.0297
    1DIPC   D2A 8478  20.833  23.689   4.789  0.3333  0.1917  0.1296
    1DIPC   D3A 8479  20.568  23.906   4.846 -0.0575 -0.1400  0.1030
    1DIPC   C4A 8480  20.392  23.926   5.141 -0.1179 -0.0056 -0.0573
    1DIPC   C1B 8481  21.104  23.283   5.100  0.0144 -0.1426 -0.3963
    1DIPC   D2B 8482  21.190  23.204   4.593 -0.2483 -0.0327  0.1291
    1DIPC   D3B 8483  20.783  23.259   4.441  0.4069 -0.0876 -0.1672
    1DIPC   C4B 8484  20.868  23.594   4.231  0.2486  0.2023 -0.3525
    1DIPC   NC3 8485  22.726  27.350   6.759  0.1376 -0.1018  0.0260
    1DIPC   PO4 8486  22.918  26.966   6.918 -0.0718  0.2084 -0.1032
    1DIPC   GL1 8487  23.055  27.035   6.467 -0.1050  0.1911  0.1396
    1DIPC   GL2 8488  22.983  26.815   6.239 -0.0579  0.1900 -0.0444
    1DIPC   C1A 8489  23.124  27.253   6.066 -0.1652 -0.2121  0.0664
    1DIPC   D2A 8490  23.137  27.279   5.643 -0.0920  0.3490 -0.0856
    1DIPC   D3A 8491  23.454  27.525   5.484  0.0289 -0.1345 -0.1482
    1DIPC   C4A 8492  23.410  27.901   5.470  0.0916 -0.1745  0.2447
    1DIPC   C1B 8493  22.880  26.575   5.940  0.1728 -0.3458  0.2002
    1DIPC   D2B 8494  23.097  26.643   5.507 -0.2974 -0.0772  0.0240
    1DIPC   D3B 8495  22.935  27.041   5.238 -0.0241  0.2575  0.0455
    1DIPC   C4B 8496  22.563  26.931   5.042 -0.0825 -0.1824 -0.1648
    1DIPC   NC3 8497  23.944   5.669   7.846  0.0848 -0.0035  0.0094
    1DIPC   PO4 8498  24.159   5.905   7.622  0.1417  0.1334 -0.0644
    1DIPC   GL1 8499  24.175   6.070   7.133 -0.3500  0.0681  0.0911
    1DIPC   GL2 8500  24.407   6.062   6.889 -0.1706  0.2573 -0.0888
    1DIPC   C1A 8501  24.058   6.454   6.742  0.3401  0.2665 -0.1417
    1DIPC   D2A 8502  23.988   6.573   6.287 -0.1668 -0.0612 -0.1402
    1DIPC   D3A 8503  24.374   6.332   6.117  0.0959 -0.0173  0.1383
    1DIPC   C4A 8504  24.749   6.544   5.961 -0.1182 -0.0421 -0.1214
    1DIPC   C1B 8505  24.372   5.916   6.437 -0.3383  0.1615  0.0130
    1DIPC   D2B 8506  24.135   5.975   5.913  0.1146  0.3843  0.1286
    1DIPC   D3B 8507  23.860   6.251   5.854  0.0045 -0.0746  0.0504
    1DIPC   C4B 8508  23.476   6.241   5.596  0.2557 -0.1904 -0.2628
    1DIPC   NC3 8509  14.402   0.133   7.590 -0.3079  0.1757  0.3620
    1DIPC   PO4 8510  14.543   0.403   7.326 -0.0490  0.2537  0.2938
    1DIPC   GL1 8511  14.432   0.556   6.958 -0.0500 -0.1373 -0.3182
    1DIPC   GL2 8512  14.539   0.396   6.639  0.0309 -0.2168 -0.3257
    1DIPC   C1A 8513  14.248   0.819   6.658 -0.1351  0.1011 -0.0999
    1DIPC   D2A 8514  14.130   1.291   6.668  0.2479  0.2443 -0.0039
    1DIPC   D3A 8515  13.903   1.080   6.301 -0.3900 -0.0711 -0.1975
    1DIPC   C4A 8516  13.813   1.350   5.982 -0.1228 -0.0802 -0.2390
    1DIPC   C1B 8517  14.560   0.710   6.307  0.3110  0.2001  0.4181
    1DIPC   D2B 8518  14.879   0.887   5.964  0.2418  0.2053 -0.1691
    1DIPC   D3B 8519  15.029   0.424   6.268  0.2705 -0.1741  0.1724
    1DIPC   C4B 8520  15.313   0.242   6.656 -0.2702 -0.1028 -0.1435
    1DIPC   NC3 8521  11.672  16.561   6.557  0.0821 -0.2312  0.1193
    1DIPC   PO4 8522  11.792  16.556   6.124  0.0073 -0.5161 -0.1375
    1DIPC   GL1 8523  11.716  16.262   5.857 -0.0269 -0.2712  0.0678
    1DIPC   GL2 8524  11.465  16.336   5.780  0.3998 -0.0771  0.0596
    1DIPC   C1A 8525  11.789  16.120   5.505  0.2099  0.2293 -0.1073
    1DIPC   D2A 8526  11.793  15.719   5.610 -0.0742 -0.0682  0.1380
    1DIPC   D3A 8527  11.464  15.625   5.302 -0.0358  0.2224  0.1114
    1DIPC   C4A 8528  11.127  15.762   5.022  0.1129  0.3808 -0.1639
    1DIPC   C1B 8529  11.453  16.581   5.521  0.1454 -0.0185  0.0178
    1DIPC   D2B 8530  11.318  16.870   5.357  0.1818 -0.0087 -0.1065
    1DIPC   D3B 8531  11.253  17.226   5.291  0.1071  0.0615  0.3473
    1DIPC   C4B 8532  11.596  17.459   5.193 -0.1356 -0.1199 -0.0333
    1DIPC   NC3 8533   3.118  19.923   6.646 -0.1204  0.3217 -0.1030
    1DIPC   PO4 8534   2.769  19.677   6.617 -0.3070  0.0139 -0.1387
    1DIPC   GL1 8535   2.777  19.710   6.188  0.0050 -0.1758 -0.2658
    1DIPC   GL2 8536   2.587  19.800   5.966  0.0495 -0.0020  0.3139
    1DIPC   C1A 8537   2.998  19.600   5.793  0.1003  0.1413  0.3496
    1DIPC   D2A 8538   3.225  19.568   5.296 -0.1824 -0.4437 -0.2649
    1DIPC   D3A 8539   3.278  19.643   4.799  0.3042  0.0232  0.1658
    1DIPC   C4A 8540   3.570  19.665   4.406 -0.2915  0.1672 -0.0860
    1DIPC   C1B 8541   2.917  20.084   5.805 -0.1675  0.2990  0.0442
    1DIPC   D2B 8542   3.346  20.032   5.600  0.3737  0.0921 -0.2592
    1DIPC   D3B 8543   3.200  20.078   5.197 -0.1763 -0.1942  0.0872
    1DIPC   C4B 8544   2.842  19.928   5.137  0.0528  0.0477  0.0031
    1DIPC   NC3 8545   5.448  10.971   6.572  0.1343  0.1000 -0.0106
    1DIPC   PO4 8546   5.702  11.185   6.230  0.4091 -0.0621 -0.0875
    1DIPC   GL1 8547   5.754  11.054   5.691 -0.2425  0.1791  0.0219
    1DIPC   GL2 8548   6.088  11.064   5.743 -0.2768 -0.0441 -0.2910
    1DIPC   C1A 8549   5.864  10.834   5.348 -0.0016 -0.0603 -0.0161
    1DIPC   D2A 8550   6.022  10.486   5.341  0.2001 -0.1627 -0.0312
    1DIPC   D3A 8551   6.380  10.274   5.166  0.0374 -0.2035 -0.1188
    1DIPC   C4A 8552   6.367   9.828   5.236 -0.1548  0.2110 -0.1171
    1DIPC   C1B 8553   6.477  10.991   5.512 -0.1581 -0.0358  0.0777
    1DIPC   D2B 8554   6.841  11.235   5.312  0.1022  0.3637 -0.1355
    1DIPC   D3B 8555   6.667  11.488   5.005 -0.2879 -0.2281  0.0501
    1DIPC   C4B 8556   6.494  11.227   4.740  0.2896  0.0869  0.1753
    1DIPC   NC3 8557  25.201   4.370   7.247  0.1785 -0.0277  0.2054
    1DIPC   PO4 8558  25.122   4.069   6.968 -0.0851 -0.0853  0.0208
    1DIPC   GL1 8559  24.957   4.086   6.621  0.0788  0.1418  0.1477
    1DIPC   GL2 8560  24.644   4.129   6.676 -0.0197  0.1880  0.1775
    1DIPC   C1A 8561  24.805   3.880   6.162  0.2818  0.1457  0.2822
    1DIPC   D2A 8562  24.616   3.459   5.931 -0.0561 -0.0084 -0.1862
    1DIPC   D3A 8563  24.782   3.201   5.578  0.0495  0.2645 -0.1526
    1DIPC   C4A 8564  24.548   3.098   5.169  0.1514  0.0236  0.0147
    1DIPC   C1B 8565  24.341   4.071   6.288 -0.1931 -0.0239 -0.0347
    1DIPC   D2B 8566  24.249   4.155   5.892  0.1102 -0.1657 -0.0253
    1DIPC   D3B 8567  24.602   3.941   5.714 -0.0282 -0.1239 -0.0551
    1DIPC   C4B 8568  24.717   3.744   5.344 -0.0828  0.0039  0.2266
    1DIPC   NC3 8569  15.477  24.123   5.493 -0.1188  0.1030 -0.1168
    1DIPC   PO4 8570  15.849  24.485   5.627 -0.2434 -0.2196  0.1986
    1DIPC   GL1 8571  15.783  24.423   5.244  0.1390 -0.1121 -0.1346
    1DIPC   GL2 8572  15.755  24.117   5.048  0.1277 -0.1799 -0.5034
    1DIPC   C1A 8573  15.961  24.542   4.895  0.0279 -0.0765  0.1648
    1DIPC   D2A 8574  16.072  24.638   4.432  0.0073 -0.1516 -0.3652
    1DIPC   D3A 8575  16.377  24.847   4.146  0.0329 -0.1826 -0.0791
    1DIPC   C4A 8576  16.289  24.959   3.832  0.1206  0.0469 -0.2094
    1DIPC   C1B 8577  15.451  24.342   4.704 -0.0563  0.0021 -0.4150
    1DIPC   D2B 8578  15.467  24.626   4.318 -0.2211  0.2130  0.2554
    1DIPC   D3B 8579  15.741  24.235   4.306  0.3608  0.2377 -0.2635
    1DIPC   C4B 8580  15.664  23.923   4.040 -0.1860  0.0984  0.2360
    1DIPC   NC3 8581  11.227  29.543   7.428 -0.0427 -0.0405 -0.0220
    1DIPC   PO4 8582  11.496  29.259   7.374  0.1551  0.2409 -0.4021
    1DIPC   GL1 8583  11.494  29.440   6.890  0.1350 -0.1748 -0.1625
    1DIPC   GL2 8584  11.553  29.087   6.626  0.0292  0.1385  0.1127
    1DIPC   C1A 8585  11.738  29.571   6.473  0.1323  0.0501 -0.0369
    1DIPC   D2A 8586  12.027  29.407   6.139 -0.0667  0.1528  0.0179
    1DIPC   D3A 8587  11.808  29.500   5.744  0.0113 -0.2098 -0.1559
    1DIPC   C4A 8588  11.753  29.456   5.389 -0.0241 -0.2813  0.2345
    1DIPC   C1B 8589  11.931  28.964   6.311  0.4847  0.0004 -0.0516
    1DIPC   D2B 8590  11.926  29.033   5.830  0.0333 -0.1696 -0.1437
    1DIPC   D3B 8591  11.645  28.724   5.557  0.2137  0.0767  0.2545
    1DIPC   C4B 8592  11.498  28.956   5.171 -0.3518 -0.0481 -0.0670
    1DIPC   NC3 8593   8.702  24.068   6.045  0.0420 -0.0115 -0.1212
    1DIPC   PO4 8594   8.755  24.564   5.939  0.0536  0.2427  0.1178
    1DIPC   GL1 8595   8.800  24.685   5.538 -0.0813  0.1198 -0.3260
    1DIPC   GL2 8596   9.079  24.838   5.360  0.1002 -0.3177  0.2330
    1DIPC   C1A 8597   8.723  24.789   5.079 -0.0941 -0.0979  0.1817
    1DIPC   D2A 8598   8.800  24.708   4.641 -0.3824  0.3826 -0.3495
    1DIPC   D3A 8599   8.617  24.402   4.631  0.0531 -0.2246 -0.1742
    1DIPC   C4A 8600   8.667  24.221   4.223  0.3218  0.0257 -0.0119
    1DIPC   C1B 8601   9.218  24.942   4.943 -0.1644  0.3284  0.1173
    1DIPC   D2B 8602   9.692  24.839   4.824  0.0785 -0.1713  0.0577
    1DIPC   D3B 8603   9.451  24.780   4.483 -0.1041  0.3239 -0.0650
    1DIPC   C4B 8604   9.681  24.786   4.057 -0.0750 -0.2553 -0.3673
    1DIPC   NC3 8605   9.603   0.222   7.093 -0.1392 -0.0804  0.0532
    1DIPC   PO4 8606   9.444   0.118   6.659  0.1757  0.1947  0.0540
    1DIPC   GL1 8607   9.562   0.398   6.371 -0.0030  0.1903  0.0854
    1DIPC   GL2 8608   9.564   0.701   6.555 -0.0816  0.1193  0.1222
    1DIPC   C1A 8609   9.880   0.517   6.105  0.2047  0.0871  0.3763
    1DIPC   D2A 8610  10.130   0.478   5.775  0.0004 -0.1893 -0.3754
    1DIPC   D3A 8611  10.574   0.465   5.851 -0.2778  0.2761  0.1631
    1DIPC   C4A 8612  10.852   0.492   5.402 -0.0007  0.0556  0.0424
    1DIPC   C1B 8613   9.552   0.906   6.134  0.0847  0.0623  0.1445
    1DIPC   D2B 8614   9.629   1.393   6.135  0.1890  0.2214 -0.1072
    1DIPC   D3B 8615   9.546   1.752   5.943 -0.0906 -0.1671 -0.4021
    1DIPC   C4B 8616   9.049   1.776   5.849  0.1255 -0.0265  0.3506
    1DIPC   NC3 8617  24.887  14.290   7.294  0.0842 -0.2806 -0.2282
    1DIPC   PO4 8618  25.208  14.144   7.004 -0.0183 -0.0646 -0.0611
    1DIPC   GL1 8619  25.391  14.288   6.576 -0.1716  0.1331  0.0844
    1DIPC   GL2 8620  25.625  14.124   6.378  0.4644  0.1478 -0.0126
    1DIPC   C1A 8621  25.239  14.637   6.523 -0.0097  0.1876  0.0546
    1DIPC   D2A 8622  25.298  15.100   6.565 -0.0169  0.0823 -0.1441
    1DIPC   D3A 8623  25.372  15.014   6.108  0.1701 -0.1479 -0.1739
    1DIPC   C4A 8624  25.187  15.237   5.854  0.2533 -0.1090  0.3522
    1DIPC   C1B 8625  25.996  13.929   6.271  0.0708 -0.0269  0.1849
    1DIPC   D2B 8626  26.150  13.744   5.862  0.0326  0.2256  0.0806
    1DIPC   D3B 8627  25.899  13.870   5.540 -0.3410 -0.0174  0.1735
    1DIPC   C4B 8628  25.647  14.124   5.335 -0.0625  0.0994 -0.3101
    1DIPC   NC3 8629  20.625  26.021   6.226  0.1645 -0.0125 -0.0532
    1DIPC   PO4 8630  20.683  25.676   5.824 -0.0543  0.0575  0.0076
    1DIPC   GL1 8631  21.079  25.673   5.696  0.0489  0.1998 -0.0022
    1DIPC   GL2 8632  21.003  25.440   5.405 -0.0186  0.2547  0.2173
    1DIPC   C1A 8633  21.420  25.729   5.351  0.1766  0.3140 -0.1398
    1DIPC   D2A 8634  21.713  25.793   4.942 -0.1117  0.1782  0.0450
    1DIPC   D3A 8635  21.264  25.670   4.855 -0.0961  0.1228 -0.1434
    1DIPC   C4A 8636  21.220  25.265   4.648  0.0909  0.0374  0.0146
    1DIPC   C1B 8637  20.644  25.560   5.158  0.0071 -0.0075  0.2598
    1DIPC   D2B 8638  20.300  25.283   5.196 -0.0047  0.0901 -0.1150
    1DIPC   D3B 8639  20.591  25.155   4.883 -0.1603  0.1030 -0.0808
    1DIPC   C4B 8640  20.664  25.003   4.499 -0.2168  0.0032 -0.3068
    1DIPC   NC3 8641  27.248  14.699   6.870  0.1547 -0.0304 -0.1216
    1DIPC   PO4 8642  27.048  14.365   6.988 -0.0940  0.0539 -0.1540
    1DIPC   GL1 8643  26.788  14.700   6.620  0.2835  0.0607 -0.3336
    1DIPC   GL2 8644  26.915  14.781   6.472 -0.1302  0.0044  0.1082
    1DIPC   C1A 8645  26.718  15.214   6.557  0.0577 -0.0203 -0.0269
    1DIPC   D2A 8646  26.561  15.628   6.622 -0.0008  0.2353 -0.0450
    1DIPC   D3A 8647  26.853  15.852   6.483 -0.1168  0.3321  0.0036
    1DIPC   C4A 8648  27.048  16.071   6.086 -0.1473 -0.0916 -0.1674
    1DIPC   C1B 8649  27.148  15.084   6.187  0.4827 -0.1701  0.0880
    1DIPC   D2B 8650  27.275  15.187   5.804 -0.2655  0.1945  0.1140
    1DIPC   D3B 8651  27.113  15.269   5.348  0.3268 -0.0671 -0.1557
    1DIPC   C4B 8652  26.937  15.679   5.101  0.0088  0.2274 -0.1436
    1DIPC   NC3 8653  20.763  21.236   5.894 -0.1298 -0.1628 -0.1775
    1DIPC   PO4 8654  20.459  21.610   5.961 -0.0879 -0.1037 -0.0735
    1DIPC   GL1 8655  20.313  21.599   5.564  0.2179 -0.2677  0.0194
    1DIPC   GL2 8656  20.312  21.961   5.412 -0.0747 -0.1061  0.3323
    1DIPC   C1A 8657  20.249  21.347   5.133 -0.3476  0.3274 -0.2964
    1DIPC   D2A 8658  20.276  21.338   4.784  0.1908  0.0108  0.1864
    1DIPC   D3A 8659  19.833  21.191   4.795 -0.1434 -0.3212 -0.1334
    1DIPC   C4A 8660  19.557  21.269   4.448 -0.2561 -0.2064 -0.0683
    1DIPC   C1B 8661  20.377  21.945   4.900 -0.1667 -0.2909  0.0608
    1DIPC   D2B 8662  20.363  21.777   4.466 -0.0932 -0.2085  0.1261
    1DIPC   D3B 8663  20.508  22.004   4.036 -0.2248  0.1305 -0.2826
    1DIPC   C4B 8664  20.481  21.772   3.636 -0.3270  0.1186  0.2600
    1DIPC   NC3 8665  15.244  20.346   5.559  0.1456 -0.0155 -0.2719
    1DIPC   PO4 8666  15.421  19.909   5.492 -0.0329 -0.1744  0.1575
    1DIPC   GL1 8667  15.340  19.755   5.065  0.0043  0.3545  0.2174
    1DIPC   GL2 8668  15.576  19.893   4.924  0.0553 -0.0798  0.1555
    1DIPC   C1A 8669  14.956  19.684   4.768  0.1497  0.1607 -0.0655
    1DIPC   D2A 8670  14.844  19.519   4.331 -0.0160 -0.3477 -0.0484
    1DIPC   D3A 8671  15.195  19.222   4.338  0.2740 -0.2252 -0.0482
    1DIPC   C4A 8672  15.282  18.935   4.072 -0.0027 -0.0055  0.0349
    1DIPC   C1B 8673  15.537  19.642   4.538 -0.3006  0.0070  0.3695
    1DIPC   D2B 8674  15.468  19.639   4.160 -0.1941  0.2412  0.0100
    1DIPC   D3B 8675  15.706  19.235   4.247 -0.2531 -0.0872 -0.3120
    1DIPC   C4B 8676  15.804  18.777   3.928 -0.2670 -0.0552  0.0005
    1DIPC   NC3 8677  15.835  22.262   5.103 -0.2377 -0.0093 -0.0780
    1DIPC   PO4 8678  16.235  22.054   4.980 -0.4188 -0.1791 -0.1490
    1DIPC   GL1 8679  16.515  22.090   4.704 -0.2207 -0.1087 -0.0740
    1DIPC   GL2 8680  16.930  21.957   4.694 -0.0942 -0.4143 -0.3614
    1DIPC   C1A 8681  16.622  22.350   4.348 -0.1468 -0.1286  0.3886
    1DIPC   D2A 8682  16.639  22.483   3.920 -0.1648  0.2194  0.0845
    1DIPC   D3A 8683  16.716  22.812   3.752  0.1791  0.0710 -0.0292
    1DIPC   C4A 8684  16.543  23.193   3.626 -0.2895  0.0789 -0.0874
    1DIPC   C1B 8685  16.900  21.949   4.258  0.1519  0.1526 -0.0605
    1DIPC   D2B 8686  16.786  21.957   3.767  0.1808 -0.4681 -0.3298
    1DIPC   D3B 8687  17.176  21.649   3.766 -0.0315  0.2326  0.1644
    1DIPC   C4B 8688  17.499  21.707   3.447  0.1662 -0.0443  0.0149
    1DIPC   NC3 8689   8.371  27.608   6.335 -0.0106  0.2366 -0.0207
    1DIPC   PO4 8690   8.118  28.011   6.196  0.0673 -0.0646  0.2902
    1DIPC   GL1 8691   8.100  27.911   5.713 -0.0873  0.1939 -0.1360
    1DIPC   GL2 8692   7.967  27.640   5.722  0.1140  0.2753  0.1307
    1DIPC   C1A 8693   8.164  28.147   5.328 -0.0042  0.0951  0.0492
    1DIPC   D2A 8694   8.200  28.175   4.861 -0.0327 -0.0921  0.0408
    1DIPC   D3A 8695   8.185  27.585   5.056 -0.2222 -0.0898  0.0253
    1DIPC   C4A 8696   7.742  27.522   4.891  0.0190 -0.0902 -0.0182
    1DIPC   C1B 8697   7.829  27.370   5.423 -0.1438 -0.2147  0.0953
    1DIPC   D2B 8698   7.461  27.241   5.229 -0.2845 -0.0168  0.0394
    1DIPC   D3B 8699   7.590  27.064   4.816  0.0035 -0.0948  0.0960
    1DIPC   C4B 8700   7.492  27.322   4.423  0.1761  0.0791 -0.0336
    1DIPC   NC3 8701  26.873  27.192   6.469  0.1560 -0.2243  0.0526
    1DIPC   PO4 8702  26.633  27.592   6.353  0.1263  0.0814  0.0841
    1DIPC   GL1 8703  26.470  27.734   6.030 -0.3569  0.1175 -0.3018
    1DIPC   GL2 8704  26.811  27.824   5.838 -0.0412 -0.3240  0.0547
    1DIPC   C1A 8705  26.283  27.526   5.736  0.3258 -0.1062  0.2689
    1DIPC   D2A 8706  26.400  27.167   5.556  0.0712 -0.0483  0.1286
    1DIPC   D3A 8707  26.722  26.903   5.504  0.0717  0.2568  0.2190
    1DIPC   C4A 8708  26.779  26.764   5.081  0.2374  0.1010  0.0400
    1DIPC   C1B 8709  26.627  27.850   5.411  0.1695 -0.1148 -0.3104
    1DIPC   D2B 8710  26.210  28.043   5.440  0.0895 -0.0716  0.1347
    1DIPC   D3B 8711  26.034  28.280   5.148  0.0920  0.0563  0.1961
    1DIPC   C4B 8712  26.148  28.656   5.023 -0.0157  0.0593 -0.0103
    1DIPC   NC3 8713  10.035   3.347   7.412 -0.2470 -0.1298 -0.1742
    1DIPC   PO4 8714   9.663   3.454   7.207  0.1281  0.0913 -0.0630
    1DIPC   GL1 8715   9.849   3.750   6.934 -0.3302  0.3574 -0.0337
    1DIPC   GL2 8716   9.611   3.921   6.695 -0.0152 -0.2334  0.2491
    1DIPC   C1A 8717  10.132   4.029   6.640  0.1835  0.1258 -0.0449
    1DIPC   D2A 8718  10.303   4.034   6.297 -0.3656 -0.1842  0.3285
    1DIPC   D3A 8719  10.065   3.626   6.245  0.0767  0.1819 -0.0338
    1DIPC   C4A 8720  10.126   3.454   6.582  0.3150 -0.2303  0.4152
    1DIPC   C1B 8721   9.596   3.779   6.310  0.1272  0.0649  0.1875
    1DIPC   D2B 8722   9.587   3.383   6.118  0.1986 -0.1803  0.1797
    1DIPC   D3B 8723   9.412   3.425   5.676 -0.0138  0.2536 -0.2371
    1DIPC   C4B 8724   9.578   3.212   5.363  0.3688  0.0385  0.0465
    1DIPC   NC3 8725   4.549  19.410   6.215  0.1298 -0.1987  0.0969
    1DIPC   PO4 8726   4.488  18.948   6.160 -0.2248 -0.0018  0.0115
    1DIPC   GL1 8727   4.634  18.803   5.741 -0.2538  0.0359 -0.3013
    1DIPC   GL2 8728   4.970  18.643   5.667 -0.2411 -0.0366  0.1483
    1DIPC   C1A 8729   4.358  18.527   5.444  0.2774 -0.4572  0.1554
    1DIPC   D2A 8730   4.354  18.432   5.088  0.1261 -0.0051 -0.0580
    1DIPC   D3A 8731   4.181  18.904   4.903 -0.2456 -0.0200  0.1668
    1DIPC   C4A 8732   4.301  18.953   4.450 -0.2633  0.0627 -0.0515
    1DIPC   C1B 8733   4.907  18.631   5.244  0.0003  0.1076 -0.0860
    1DIPC   D2B 8734   4.735  18.939   5.057 -0.1499 -0.0545 -0.1070
    1DIPC   D3B 8735   4.516  19.239   4.807 -0.3182  0.4265  0.0820
    1DIPC   C4B 8736   4.508  19.659   4.956  0.1464 -0.0310  0.0556
    1DIPC   NC3 8737   1.829  23.751   6.178 -0.2031 -0.2480  0.2888
    1DIPC   PO4 8738   1.418  23.854   6.015 -0.1486 -0.1713 -0.1079
    1DIPC   GL1 8739   1.119  23.944   5.741  0.1864  0.5000 -0.1360
    1DIPC   GL2 8740   0.979  23.599   5.741  0.1687 -0.1709  0.2192
    1DIPC   C1A 8741   1.155  24.167   5.399 -0.0089  0.0729  0.1449
    1DIPC   D2A 8742   1.109  24.039   5.029 -0.0868  0.1026 -0.1676
    1DIPC   D3A 8743   1.485  23.811   4.943 -0.0570  0.2318  0.1172
    1DIPC   C4A 8744   1.692  23.543   4.614  0.0053  0.0353  0.1939
    1DIPC   C1B 8745   0.802  23.314   5.399 -0.0360 -0.2096 -0.2004
    1DIPC   D2B 8746   0.698  22.835   5.465  0.0245  0.0753  0.1711
    1DIPC   D3B 8747   0.740  22.862   5.024 -0.0337  0.1808  0.2191
    1DIPC   C4B 8748   0.576  23.271   4.919  0.1485 -0.1332  0.2961
    1DIPC   NC3 8749   7.210  17.932   5.955  0.1073 -0.0882 -0.1750
    1DIPC   PO4 8750   7.115  17.551   5.778  0.1643 -0.0171 -0.0816
    1DIPC   GL1 8751   7.175  17.752   5.397 -0.0748 -0.3647 -0.0918
    1DIPC   GL2 8752   7.417  17.990   5.437 -0.2379 -0.3171 -0.0008
    1DIPC   C1A 8753   7.068  18.013   5.075 -0.2318 -0.0034  0.0262
    1DIPC   D2A 8754   7.195  18.122   4.620  0.0826 -0.1036 -0.0816
    1DIPC   D3A 8755   7.339  17.677   4.654 -0.1097  0.0333 -0.0020
    1DIPC   C4A 8756   7.771  17.401   4.727 -0.0450  0.0863 -0.0865
    1DIPC   C1B 8757   7.580  17.917   5.032 -0.3432  0.0228 -0.0180
    1DIPC   D2B 8758   7.745  17.924   4.598 -0.1138  0.1714 -0.1347
    1DIPC   D3B 8759   7.485  17.930   4.239 -0.0925  0.1973  0.0643
    1DIPC   C4B 8760   7.133  17.612   4.137 -0.1286 -0.1534 -0.2361
    1DIPC   NC3 8761  26.754   0.872   6.969  0.0775 -0.1164  0.0972
    1DIPC   PO4 8762  26.485   1.178   6.764  0.0163  0.2506  0.1187
    1DIPC   GL1 8763  26.671   1.276   6.428 -0.1377  0.1051 -0.1069
    1DIPC   GL2 8764  26.531   1.519   6.203  0.0093  0.0914  0.2138
    1DIPC   C1A 8765  26.754   1.196   5.938 -0.0801 -0.1556  0.1487
    1DIPC   D2A 8766  26.492   1.195   5.590  0.1658  0.3506  0.0110
    1DIPC   D3A 8767  26.569   1.410   5.240 -0.1696 -0.2388  0.1751
    1DIPC   C4A 8768  26.819   1.745   5.168  0.0874  0.0453 -0.0883
    1DIPC   C1B 8769  26.434   1.644   5.798  0.0750 -0.3121  0.1606
    1DIPC   D2B 8770  26.317   1.815   5.482 -0.2285 -0.2409 -0.1135
    1DIPC   D3B 8771  26.123   2.146   5.590  0.2806  0.0256  0.0316
    1DIPC   C4B 8772  26.254   2.382   5.245 -0.0540  0.2772 -0.0114
    1DIPC   NC3 8773  20.627   6.941   8.074  0.0823  0.0331  0.3113
    1DIPC   PO4 8774  21.051   6.802   7.886 -0.2981  0.0607  0.0434
    1DIPC   GL1 8775  21.128   6.910   7.531  0.1168 -0.0278  0.0353
    1DIPC   GL2 8776  21.448   6.995   7.586 -0.1622 -0.2338  0.0429
    1DIPC   C1A 8777  20.991   7.148   7.174  0.0882 -0.2027 -0.0894
    1DIPC   D2A 8778  20.876   7.184   6.815 -0.1022  0.1712 -0.3371
    1DIPC   D3A 8779  21.036   6.970   6.430 -0.2684  0.1796  0.0279
    1DIPC   C4A 8780  21.017   6.867   6.016  0.0652 -0.0195 -0.2943
    1DIPC   C1B 8781  21.455   7.252   7.208 -0.0714  0.1360 -0.0390
    1DIPC   D2B 8782  21.729   7.416   6.783 -0.1702  0.2406  0.1793
    1DIPC   D3B 8783  21.969   7.329   6.503  0.0985 -0.0193 -0.1456
    1DIPC   C4B 8784  21.984   7.055   6.108  0.0161 -0.2290 -0.1485
    1DIPC   NC3 8785   1.905   1.743   6.660 -0.1827  0.0527 -0.1540
    1DIPC   PO4 8786   1.969   1.758   6.248 -0.1598  0.0507 -0.1364
    1DIPC   GL1 8787   1.777   1.914   5.927 -0.1186 -0.0590  0.0706
    1DIPC   GL2 8788   1.893   2.256   5.852 -0.3599 -0.1755 -0.0128
    1DIPC   C1A 8789   1.897   1.793   5.497 -0.0551  0.0241  0.0520
    1DIPC   D2A 8790   2.078   1.489   5.239 -0.1130  0.1641  0.0524
    1DIPC   D3A 8791   1.977   1.718   4.817 -0.0869  0.1090  0.2573
    1DIPC   C4A 8792   2.091   2.063   4.563  0.2188  0.0314 -0.1356
    1DIPC   C1B 8793   1.959   2.307   5.453 -0.1273  0.2249 -0.1110
    1DIPC   D2B 8794   2.070   2.131   5.095 -0.0415  0.2948 -0.0652
    1DIPC   D3B 8795   2.384   1.871   5.203 -0.1157  0.0736 -0.3610
    1DIPC   C4B 8796   2.341   2.092   5.657  0.4426 -0.0571 -0.1413
    1DIPC   NC3 8797   9.227  24.703   5.820 -0.0738  0.0045 -0.2888
    1DIPC   PO4 8798   9.552  24.707   5.450 -0.2423 -0.1052 -0.1270
    1DIPC   GL1 8799   9.376  24.506   5.167  0.4094  0.1430  0.1496
    1DIPC   GL2 8800   9.178  24.332   5.206  0.1766  0.0307 -0.1520
    1DIPC   C1A 8801   9.174  24.431   4.747  0.1127 -0.0674  0.3678
    1DIPC   D2A 8802   9.262  24.357   4.313  0.6137  0.1966 -0.0383
    1DIPC   D3A 8803   9.012  24.704   4.173 -0.1668 -0.1076 -0.1312
    1DIPC   C4A 8804   8.587  24.786   4.057  0.0620 -0.1418 -0.1419
    1DIPC   C1B 8805   8.794  24.342   5.167 -0.2001  0.1100 -0.1365
    1DIPC   D2B 8806   8.369  24.248   5.101  0.0289 -0.0344  0.1924
    1DIPC   D3B 8807   8.445  23.920   4.879 -0.1567  0.1682  0.0036
    1DIPC   C4B 8808   8.264  23.979   4.501  0.3626  0.0065  0.0695
    1DIPC   NC3 8809  11.527  19.680   6.053  0.0280  0.0492 -0.0761
    1DIPC   PO4 8810  11.640  19.196   6.146 -0.2888  0.2071  0.1860
    1DIPC   GL1 8811  11.458  19.118   5.731 -0.1188 -0.1340 -0.2448
    1DIPC   GL2 8812  11.736  19.370   5.628 -0.2721 -0.1122  0.1685
    1DIPC   C1A 8813  11.640  18.923   5.416 -0.1138  0.4098  0.2084
    1DIPC   D2A 8814  11.714  18.801   5.055 -0.1940 -0.1043  0.1196
    1DIPC   D3A 8815  11.981  19.103   4.777  0.1826 -0.1984 -0.0670
    1DIPC   C4A 8816  11.792  19.514   4.794 -0.0025  0.1053  0.1946
    1DIPC   C1B 8817  11.958  19.236   5.267 -0.2082  0.0958 -0.1146
    1DIPC   D2B 8818  12.165  18.851   5.164 -0.3348  0.0248  0.0592
    1DIPC   D3B 8819  12.376  18.559   5.294  0.2432 -0.1244  0.1278
    1DIPC   C4B 8820  12.611  18.538   4.966  0.0288 -0.0124 -0.0787
    1DIPC   NC3 8821  14.742  24.535   5.634 -0.0198  0.0273 -0.3317
    1DIPC   PO4 8822  14.976  24.228   5.304 -0.1779  0.4550 -0.0443
    1DIPC   GL1 8823  14.815  23.969   4.947  0.2264  0.0082  0.0111
    1DIPC   GL2 8824  14.571  24.096   4.844 -0.2070 -0.0149  0.0887
    1DIPC   C1A 8825  15.123  23.990   4.579 -0.0818  0.1199 -0.0000
    1DIPC   D2A 8826  15.343  23.738   4.361  0.0654 -0.2269  0.0397
    1DIPC   D3A 8827  15.246  23.797   3.879  0.1666 -0.1237 -0.0749
    1DIPC   C4A 8828  15.224  24.009   3.551  0.2281 -0.0016  0.2377
    1DIPC   C1B 8829  14.642  24.059   4.363  0.1514 -0.1106 -0.2242
    1DIPC   D2B 8830  14.445  23.897   3.910  0.2056  0.1065 -0.0531
    1DIPC   D3B 8831  14.758  24.163   3.864  0.2791  0.1202 -0.2810
    1DIPC   C4B 8832  14.678  24.531   3.686  0.0845  0.0884 -0.1783
    1DIPC   NC3 8833   6.165   4.787   6.882  0.0333 -0.2017  0.1267
    1DIPC   PO4 8834   6.247   4.349   6.867 -0.0459 -0.4745 -0.2366
    1DIPC   GL1 8835   6.300   4.277   6.504  0.0372  0.0149  0.1068
    1DIPC   GL2 8836   6.258   4.486   6.288  0.2400  0.2463 -0.0729
    1DIPC   C1A 8837   6.417   3.987   6.258 -0.0529  0.0808 -0.1655
    1DIPC   D2A 8838   6.512   3.892   5.805 -0.0541 -0.1754 -0.1552
    1DIPC   D3A 8839   6.943   3.888   5.606  0.1992 -0.3787 -0.0908
    1DIPC   C4A 8840   7.070   4.155   5.245  0.0771 -0.0259  0.3057
    1DIPC   C1B 8841   6.531   4.788   6.153 -0.0835 -0.0645  0.1295
    1DIPC   D2B 8842   6.861   5.106   5.966 -0.2175  0.3332  0.2200
    1DIPC   D3B 8843   7.173   5.058   5.581 -0.0259  0.3966  0.4044
    1DIPC   C4B 8844   7.212   5.455   5.207  0.2721 -0.1915  0.0839
    1DIPC   NC3 8845   4.077   2.681   6.946 -0.4142 -0.0396 -0.0859
    1DIPC   PO4 8846   3.901   2.706   6.475 -0.1021  0.3352 -0.1866
    1DIPC   GL1 8847   3.900   2.777   6.114  0.3088  0.2095  0.0247
    1DIPC   GL2 8848   3.729   2.619   5.877 -0.1513  0.1563 -0.0113
    1DIPC   C1A 8849   3.801   3.118   5.761  0.0235  0.0405 -0.4824
    1DIPC   D2A 8850   3.969   3.277   5.311  0.0559 -0.0842 -0.2762
    1DIPC   D3A 8851   4.133   3.621   5.338  0.2071 -0.0388  0.1661
    1DIPC   C4A 8852   4.480   3.873   5.540 -0.3598  0.0327 -0.4044
    1DIPC   C1B 8853   3.722   2.423   5.588  0.3565  0.1043 -0.1054
    1DIPC   D2B 8854   3.765   2.306   5.245  0.1824  0.4027  0.0248
    1DIPC   D3B 8855   3.883   1.969   5.442  0.0830  0.4537 -0.3105
    1DIPC   C4B 8856   4.371   1.747   5.539 -0.0922 -0.1624  0.1191
    1DIPC   NC3 8857  24.382   4.970   7.705 -0.0262 -0.0488  0.2301
    1DIPC   PO4 8858  24.404   4.532   7.501 -0.1384  0.0321  0.1666
    1DIPC   GL1 8859  24.413   4.584   7.041 -0.0745 -0.3107 -0.1855
    1DIPC   GL2 8860  24.315   4.938   7.151 -0.0032  0.0778  0.0813
    1DIPC   C1A 8861  24.357   4.607   6.649  0.0087 -0.0734  0.1758
    1DIPC   D2A 8862  24.321   4.971   6.418  0.0140  0.0729 -0.0048
    1DIPC   D3A 8863  24.459   5.136   5.958 -0.0952 -0.1010  0.0597
    1DIPC   C4A 8864  24.796   5.363   5.699  0.0827 -0.0282  0.2402
    1DIPC   C1B 8865  24.253   5.256   6.809 -0.1427 -0.3725  0.3738
    1DIPC   D2B 8866  24.098   5.650   6.715 -0.0582 -0.1565  0.3822
    1DIPC   D3B 8867  23.766   5.642   7.030  0.0036  0.0439  0.0237
    1DIPC   C4B 8868  23.381   5.405   7.112  0.1925 -0.3897  0.0381
    1DIPC   NC3 8869  15.958  15.177   6.328  0.0118 -0.2523  0.1260
    1DIPC   PO4 8870  16.215  15.316   6.060  0.0256  0.2623 -0.0056
    1DIPC   GL1 8871  16.080  15.178   5.680  0.1133 -0.4475 -0.2908
    1DIPC   GL2 8872  15.858  15.285   5.493 -0.1197 -0.1985 -0.2216
    1DIPC   C1A 8873  16.226  15.287   5.169  0.2156  0.1899 -0.3412
    1DIPC   D2A 8874  16.237  15.473   4.697 -0.1028  0.0359 -0.1116
    1DIPC   D3A 8875  16.649  15.694   4.608  0.1228 -0.0474 -0.1798
    1DIPC   C4A 8876  16.586  16.123   4.492  0.0319  0.1560  0.0430
    1DIPC   C1B 8877  15.489  15.120   5.450  0.0308  0.1574  0.3464
    1DIPC   D2B 8878  15.251  14.907   5.793 -0.0897  0.1628  0.1570
    1DIPC   D3B 8879  14.995  14.972   5.402 -0.0748  0.4684  0.4806
    1DIPC   C4B 8880  15.062  14.890   5.045  0.0410  0.0192  0.1382
    1DIPC   NC3 8881  26.172  17.745   6.704 -0.1963 -0.1422 -0.0749
    1DIPC   PO4 8882  26.363  17.670   6.340 -0.1281  0.2943 -0.3283
    1DIPC   GL1 8883  26.286  17.310   6.106 -0.1740 -0.4302 -0.1053
    1DIPC   GL2 8884  26.569  17.343   5.888  0.2722 -0.3360 -0.2390
    1DIPC   C1A 8885  26.162  17.213   5.618  0.3953  0.1833 -0.2286
    1DIPC   D2A 8886  26.005  17.281   5.282 -0.2337  0.2017  0.3656
    1DIPC   D3A 8887  26.076  17.258   4.808 -0.0374 -0.1020 -0.0697
    1DIPC   C4A 8888  26.276  16.926   4.617  0.0822  0.0939 -0.1189
    1DIPC   C1B 8889  26.680  17.065   5.548  0.1940  0.1805  0.2174
    1DIPC   D2B 8890  26.874  16.732   5.378  0.2902  0.1302 -0.0118
    1DIPC   D3B 8891  26.557  16.662   5.048  0.5477  0.3484 -0.0039
    1DIPC   C4B 8892  26.416  16.971   5.076 -0.0465 -0.0319  0.1651
    1DIPC   NC3 8893  12.621  11.866   6.477  0.1432 -0.0804 -0.0748
    1DIPC   PO4 8894  12.312  11.487   6.559  0.4070  0.1297  0.0345
    1DIPC   GL1 8895  12.289  11.349   6.207 -0.2439 -0.0727  0.2977
    1DIPC   GL2 8896  12.417  11.560   6.001  0.2326 -0.0507  0.1907
    1DIPC   C1A 8897  12.139  11.059   5.870  0.0866 -0.1290  0.0224
    1DIPC   D2A 8898  11.921  11.120   5.508  0.0350 -0.0205  0.3810
    1DIPC   D3A 8899  12.284  11.019   5.260 -0.0851 -0.1722 -0.3128
    1DIPC   C4A 8900  12.335  11.131   4.867  0.0507  0.2993  0.0146
    1DIPC   C1B 8901  12.375  11.442   5.574  0.4235 -0.1009 -0.0316
    1DIPC   D2B 8902  12.556  11.654   5.231 -0.0294  0.0797  0.1988
    1DIPC   D3B 8903  12.331  11.606   4.950 -0.0416 -0.1608  0.0953
    1DIPC   C4B 8904  12.579  11.559   4.576  0.1000 -0.0139 -0.1459
    1DIPC   NC3 8905  10.331   2.467   7.119 -0.1460 -0.2742  0.0999
    1DIPC   PO4 8906   9.949   2.586   6.951 -0.0681  0.0708  0.0295
    1DIPC   GL1 8907   9.962   2.695   6.487  0.2473 -0.1023  0.2281
    1DIPC   GL2 8908   9.714   2.977   6.412 -0.1441 -0.0308 -0.3979
    1DIPC   C1A 8909  10.168   2.491   6.196  0.0142  0.0540 -0.2007
    1DIPC   D2A 8910  10.011   2.221   5.898 -0.0937 -0.0265 -0.0170
    1DIPC   D3A 8911  10.172   2.328   5.529  0.0004 -0.1751 -0.1662
    1DIPC   C4A 8912  10.200   2.745   5.315  0.3652 -0.2455  0.1830
    1DIPC   C1B 8913   9.988   3.149   6.092 -0.0814 -0.0724  0.0581
    1DIPC   D2B 8914  10.021   3.145   5.643 -0.6879 -0.0950 -0.0320
    1DIPC   D3B 8915   9.908   3.585   5.777  0.0592 -0.1413  0.1571
    1DIPC   C4B 8916  10.129   3.972   5.821  0.0977 -0.1701  0.3841
    1DIPC   NC3 8917   4.309  26.761   5.767  0.0400  0.0540 -0.1191
    1DIPC   PO4 8918   4.522  26.723   5.401 -0.2317  0.3163 -0.0854
    1DIPC   GL1 8919   4.627  27.043   5.111 -0.0855 -0.0197  0.0306
    1DIPC   GL2 8920   4.967  27.080   5.228 -0.0286  0.0382  0.2641
    1DIPC   C1A 8921   4.880  27.114   4.752 -0.0915  0.3615  0.3325
    1DIPC   D2A 8922   5.023  27.503   4.384  0.1417  0.5071 -0.0905
    1DIPC   D3A 8923   4.580  27.590   4.253 -0.0749 -0.0950  0.0055
    1DIPC   C4A 8924   4.467  27.493   3.759 -0.0932  0.0252  0.3036
    1DIPC   C1B 8925   5.276  27.343   5.016 -0.0252  0.0710  0.0490
    1DIPC   D2B 8926   5.493  27.544   4.637  0.0452  0.1248  0.0779
    1DIPC   D3B 8927   5.354  27.976   4.544  0.1494 -0.0295 -0.1605
    1DIPC   C4B 8928   5.115  28.003   4.131  0.1549  0.0051  0.2077
    1DIPC   NC3 8929  24.226  24.604   6.603  0.1437  0.2910  0.0354
    1DIPC   PO4 8930  24.260  24.242   6.409  0.0693  0.2422 -0.0164
    1DIPC   GL1 8931  24.215  24.549   6.048  0.1296 -0.2648  0.1843
    1DIPC   GL2 8932  24.341  24.728   6.094 -0.1307  0.1963  0.0960
    1DIPC   C1A 8933  24.020  24.769   5.636  0.1348  0.1441 -0.1660
    1DIPC   D2A 8934  23.855  24.779   5.179 -0.0780 -0.1488  0.1682
    1DIPC   D3A 8935  23.915  24.501   4.894 -0.1015 -0.2445  0.0122
    1DIPC   C4A 8936  24.213  24.289   4.552  0.0002  0.1083 -0.0501
    1DIPC   C1B 8937  24.802  24.633   5.806  0.2284 -0.2201  0.0735
    1DIPC   D2B 8938  25.080  24.888   5.659 -0.1137 -0.2577  0.1671
    1DIPC   D3B 8939  25.353  24.545   5.573 -0.1256 -0.3534 -0.1835
    1DIPC   C4B 8940  25.472  24.490   5.180  0.0420 -0.1443 -0.2912
    1DIPC   NC3 8941   9.024   0.028   6.857  0.1663 -0.2848  0.2231
    1DIPC   PO4 8942   8.583  29.750   6.800 -0.3008  0.0048  0.6589
    1DIPC   GL1 8943   8.838  29.696   6.398  0.1004  0.2397 -0.0252
    1DIPC   GL2 8944   9.158  29.650   6.249  0.1752 -0.2963  0.0692
    1DIPC   C1A 8945   8.722  29.807   5.996  0.0420  0.0882 -0.2090
    1DIPC   D2A 8946   8.647  29.794   5.564 -0.0376  0.2094  0.2004
    1DIPC   D3A 8947   8.872   0.271   5.626  0.1505  0.0018  0.1644
    1DIPC   C4A 8948   9.078   0.357   6.113  0.0346 -0.1163 -0.0524
    1DIPC   C1B 8949   9.348  29.751   5.827 -0.1222 -0.3794  0.1001
    1DIPC   D2B 8950   9.377   0.035   5.472 -0.1527  0.0138  0.0973
    1DIPC   D3B 8951   9.227   0.006   5.134  0.1678  0.2904 -0.1119
    1DIPC   C4B 8952   9.148  29.446   4.983 -0.2324  0.1683 -0.0467
    1DIPC   NC3 8953  23.285   8.270   7.533 -0.2698 -0.0367 -0.1505
    1DIPC   PO4 8954  23.283   7.936   7.627 -0.0340  0.2667  0.0475
    1DIPC   GL1 8955  23.651   8.054   7.268  0.0557  0.2352  0.2304
    1DIPC   GL2 8956  23.965   8.154   7.270 -0.0875  0.0101 -0.1277
    1DIPC   C1A 8957  23.624   8.142   6.821  0.3354  0.0030  0.1080
    1DIPC   D2A 8958  23.608   7.976   6.384  0.3820 -0.0148  0.1479
    1DIPC   D3A 8959  23.404   8.230   5.950  0.1162 -0.2306  0.4710
    1DIPC   C4A 8960  23.101   8.615   5.855  0.0580  0.0814  0.2755
    1DIPC   C1B 8961  24.100   8.233   6.854 -0.0948  0.0841 -0.0833
    1DIPC   D2B 8962  24.029   8.264   6.457 -0.1142  0.1064  0.1553
    1DIPC   D3B 8963  23.711   8.576   6.248  0.0475  0.2332 -0.1555
    1DIPC   C4B 8964  23.694   8.657   5.789  0.4112 -0.2011 -0.0875
    1DIPC   NC3 8965   9.496  10.591   6.530 -0.1167 -0.1214 -0.3026
    1DIPC   PO4 8966   9.069  10.815   6.603  0.1301 -0.0707  0.3101
    1DIPC   GL1 8967   9.019  10.687   6.250  0.2713 -0.1326 -0.0638
    1DIPC   GL2 8968   8.777  10.451   6.199  0.1516  0.0212 -0.3147
    1DIPC   C1A 8969   8.911  10.879   5.835  0.2005 -0.0605 -0.2900
    1DIPC   D2A 8970   9.245  10.909   5.508 -0.0070  0.1485 -0.2076
    1DIPC   D3A 8971   9.470  11.325   5.561 -0.0471  0.0258 -0.2904
    1DIPC   C4A 8972   9.851  11.275   5.650 -0.2123 -0.2631 -0.2303
    1DIPC   C1B 8973   8.659  10.442   5.771 -0.0088 -0.0874  0.2651
    1DIPC   D2B 8974   8.522  10.365   5.280  0.2412  0.1792 -0.1730
    1DIPC   D3B 8975   8.184  10.609   5.599 -0.1435 -0.3447 -0.1259
    1DIPC   C4B 8976   7.835  10.799   5.504  0.0236 -0.0296  0.2583
    1DIPC   NC3 8977   7.336  13.650   6.432  0.0280 -0.0551 -0.2447
    1DIPC   PO4 8978   7.669  13.492   6.302  0.2936  0.2972  0.0992
    1DIPC   GL1 8979   7.545  13.255   6.006  0.1945  0.0352 -0.2855
    1DIPC   GL2 8980   7.727  13.315   5.738 -0.0775  0.1632  0.3257
    1DIPC   C1A 8981   7.277  13.267   5.531 -0.0697  0.3322 -0.0974
    1DIPC   D2A 8982   7.198  13.061   5.130  0.0367 -0.1228  0.2742
    1DIPC   D3A 8983   7.289  12.991   4.688 -0.1482 -0.0011  0.0887
    1DIPC   C4A 8984   7.046  13.214   4.407 -0.0639 -0.0905 -0.1477
    1DIPC   C1B 8985   8.025  13.181   5.521 -0.0251  0.1499 -0.1055
    1DIPC   D2B 8986   8.222  13.307   5.106 -0.2134  0.2871  0.0866
    1DIPC   D3B 8987   8.204  13.284   4.649 -0.3986 -0.0858 -0.1117
    1DIPC   C4B 8988   8.328  13.703   4.624  0.0755  0.2047 -0.0389
    1DIPC   NC3 8989  24.363   1.814   7.246 -0.1289 -0.0619 -0.0067
    1DIPC   PO4 8990  23.886   1.799   7.182 -0.2151 -0.0078  0.0698
    1DIPC   GL1 8991  23.541   1.710   6.860  0.2280  0.1698  0.3930
    1DIPC   GL2 8992  23.384   2.050   6.696 -0.2758 -0.1011 -0.2106
    1DIPC   C1A 8993  23.578   1.495   6.663  0.0182  0.0778  0.0352
    1DIPC   D2A 8994  23.761   1.350   6.325 -0.3734 -0.0182  0.0837
    1DIPC   D3A 8995  23.457   1.734   6.262  0.0399 -0.1840 -0.1603
    1DIPC   C4A 8996  23.104   1.640   6.581 -0.2526 -0.3233  0.0933
    1DIPC   C1B 8997  23.503   2.245   6.278 -0.0003 -0.2540 -0.0458
    1DIPC   D2B 8998  23.439   2.470   5.900  0.3070 -0.1539  0.0241
    1DIPC   D3B 8999  23.212   2.391   5.585  0.0338 -0.0918 -0.0756
    1DIPC   C4B 9000  23.004   1.995   5.744  0.0500  0.1608 -0.0563
    1DIPC   NC3 9001   1.570  27.264   5.860  0.3480 -0.3863 -0.1263
    1DIPC   PO4 9002   1.112  27.449   5.885 -0.2588  0.1152  0.0594
    1DIPC   GL1 9003   1.088  27.390   5.525  0.0413 -0.1164  0.2085
    1DIPC   GL2 9004   1.052  27.738   5.494  0.0934  0.3766 -0.0841
    1DIPC   C1A 9005   1.246  27.451   5.112 -0.0464  0.1406  0.1025
    1DIPC   D2A 9006   1.498  27.401   4.704 -0.1701 -0.0678  0.1044
    1DIPC   D3A 9007   1.561  27.373   4.261 -0.1289  0.2703  0.1420
    1DIPC   C4A 9008   1.355  27.296   3.858 -0.1000  0.2276 -0.0649
    1DIPC   C1B 9009   1.022  27.979   5.053 -0.1877 -0.1345 -0.0948
    1DIPC   D2B 9010   1.073  28.286   4.566  0.0866  0.0217 -0.1038
    1DIPC   D3B 9011   1.377  28.202   4.292  0.2129  0.0395 -0.3855
    1DIPC   C4B 9012   1.662  27.824   4.434  0.0445  0.0049  0.2437
    1DIPC   NC3 9013  18.704   4.810   7.841 -0.0609  0.1338 -0.4566
    1DIPC   PO4 9014  18.348   4.953   7.698 -0.1109  0.0999 -0.1181
    1DIPC   GL1 9015  18.193   5.181   7.329 -0.1221  0.0628  0.4665
    1DIPC   GL2 9016  17.943   5.113   7.457 -0.0329 -0.1588 -0.0565
    1DIPC   C1A 9017  17.952   4.934   6.943 -0.3183  0.1331 -0.2501
    1DIPC   D2A 9018  17.746   4.548   7.055 -0.1106 -0.1661 -0.0229
    1DIPC   D3A 9019  17.605   4.329   6.781 -0.1264 -0.0114 -0.1703
    1DIPC   C4A 9020  17.837   4.362   6.429  0.2043  0.3679 -0.0573
    1DIPC   C1B 9021  17.592   5.051   7.301 -0.1007  0.0936 -0.0102
    1DIPC   D2B 9022  17.418   4.699   7.446  0.0352 -0.0733 -0.1573
    1DIPC   D3B 9023  17.342   4.250   7.295 -0.3906  0.1061  0.1098
    1DIPC   C4B 9024  17.805   4.054   7.257  0.0029 -0.0951  0.3049
    1DIPC   NC3 9025   4.851  13.068   6.841 -0.0491 -0.1017  0.1995
    1DIPC   PO4 9026   5.012  12.913   6.394  0.0816  0.2727  0.2265
    1DIPC   GL1 9027   5.035  13.152   5.974 -0.1138  0.1105 -0.0581
    1DIPC   GL2 9028   5.023  13.518   5.785 -0.0047  0.0508  0.2558
    1DIPC   C1A 9029   5.120  13.030   5.544  0.4877 -0.1771 -0.1515
    1DIPC   D2A 9030   5.343  12.771   5.233  0.4863  0.2097  0.1385
    1DIPC   D3A 9031   5.443  12.978   4.910  0.0306  0.1646  0.4099
    1DIPC   C4A 9032   5.764  12.953   4.711  0.2353 -0.2655 -0.1434
    1DIPC   C1B 9033   5.399  13.343   5.717 -0.1005 -0.2736 -0.0708
    1DIPC   D2B 9034   5.519  13.280   5.315 -0.1876  0.2824  0.0243
    1DIPC   D3B 9035   5.145  13.313   5.143  0.2204 -0.1244 -0.0399
    1DIPC   C4B 9036   4.967  13.309   4.688  0.1586 -0.0877  0.3906
    1DIPC   NC3 9037   2.049   8.982   6.881  0.1995 -0.3056 -0.2456
    1DIPC   PO4 9038   2.286   8.861   6.525  0.0555 -0.0358 -0.2059
    1DIPC   GL1 9039   2.452   9.067   6.129  0.2730  0.2434 -0.0355
    1DIPC   GL2 9040   2.437   8.751   5.973  0.0925 -0.0269 -0.1847
    1DIPC   C1A 9041   2.821   9.224   5.797  0.0255  0.1004  0.1521
    1DIPC   D2A 9042   2.947   9.393   5.349 -0.1207  0.0028  0.0202
    1DIPC   D3A 9043   2.888   9.091   5.012 -0.1208 -0.2211  0.1533
    1DIPC   C4A 9044   2.904   8.682   5.172  0.0180  0.0099 -0.0713
    1DIPC   C1B 9045   2.542   8.769   5.508  0.0433 -0.2343 -0.3159
    1DIPC   D2B 9046   2.423   8.808   5.105  0.1211 -0.2725 -0.0431
    1DIPC   D3B 9047   2.377   8.862   4.692  0.0076  0.1077 -0.1184
    1DIPC   C4B 9048   2.449   8.563   4.290  0.0574  0.1680 -0.0160
    1DIPC   NC3 9049  29.070   5.074   7.090 -0.1883  0.3291  0.0155
    1DIPC   PO4 9050  28.919   5.317   6.788  0.1730 -0.3024  0.1002
    1DIPC   GL1 9051  28.868   5.226   6.365 -0.2203  0.2014 -0.0071
    1DIPC   GL2 9052  28.929   4.870   6.361 -0.1201  0.0739 -0.0669
    1DIPC   C1A 9053  28.923   5.307   5.949  0.0431 -0.0447  0.1200
    1DIPC   D2A 9054  29.070   5.359   5.566  0.2788  0.3282  0.2978
    1DIPC   D3A 9055  29.141   5.701   5.192 -0.1035 -0.2701  0.0512
    1DIPC   C4A 9056  28.853   5.584   4.865 -0.0320 -0.1094 -0.2020
    1DIPC   C1B 9057  29.303   5.000   6.170 -0.1829  0.1717  0.1408
    1DIPC   D2B 9058  29.358   4.998   5.723 -0.2684  0.1691  0.1284
    1DIPC   D3B 9059  29.518   4.640   5.477  0.0576  0.1118  0.2161
    1DIPC   C4B 9060  29.246   4.282   5.313  0.2611 -0.1036 -0.1332
    1DIPC   NC3 9061  13.159  21.234   5.066  0.1016 -0.0439 -0.0475
    1DIPC   PO4 9062  13.625  21.334   5.193 -0.2848 -0.1168  0.4566
    1DIPC   GL1 9063  13.819  21.385   4.856  0.1843 -0.2721  0.0327
    1DIPC   GL2 9064  13.542  21.523   4.697 -0.0864  0.0553 -0.1084
    1DIPC   C1A 9065  14.024  21.372   4.406  0.0790 -0.0287 -0.0651
    1DIPC   D2A 9066  13.971  21.273   4.135  0.2804  0.2562 -0.0711
    1DIPC   D3A 9067  13.863  21.420   3.764 -0.1345 -0.0503  0.2478
    1DIPC   C4A 9068  14.227  21.288   3.459  0.2290  0.1063  0.1092
    1DIPC   C1B 9069  13.467  21.410   4.173  0.1779 -0.1014 -0.2056
    1DIPC   D2B 9070  13.357  21.456   3.738 -0.0088  0.1159 -0.2401
    1DIPC   D3B 9071  13.125  21.152   3.690  0.0295  0.0705 -0.0250
    1DIPC   C4B 9072  12.738  21.262   3.679 -0.1925 -0.1485  0.2203
    1DIPC   NC3 9073  22.129  22.553   6.321  0.0020 -0.1883  0.0150
    1DIPC   PO4 9074  22.441  22.384   6.579  0.1912 -0.1723 -0.1176
    1DIPC   GL1 9075  22.676  22.292   6.262  0.1384 -0.0534  0.0063
    1DIPC   GL2 9076  22.522  22.447   5.954  0.2065 -0.1269 -0.1298
    1DIPC   C1A 9077  23.143  22.296   6.131  0.1162  0.2023 -0.1636
    1DIPC   D2A 9078  23.245  21.997   5.786 -0.0059 -0.3413 -0.1231
    1DIPC   D3A 9079  23.510  22.023   5.454  0.1014  0.0578 -0.2303
    1DIPC   C4A 9080  23.401  21.997   5.067 -0.2617  0.0289 -0.1923
    1DIPC   C1B 9081  22.907  22.494   5.746  0.2592 -0.0604 -0.0513
    1DIPC   D2B 9082  23.348  22.562   5.647  0.2731 -0.3012 -0.0469
    1DIPC   D3B 9083  23.502  22.584   5.154 -0.0389 -0.1882  0.0810
    1DIPC   C4B 9084  23.889  22.818   5.106 -0.0159  0.2268  0.1717
    1DIPC   NC3 9085   9.210   7.224   7.363 -0.1664 -0.0869 -0.1877
    1DIPC   PO4 9086   9.305   7.073   6.962  0.0969  0.1022 -0.0673
    1DIPC   GL1 9087   9.383   7.085   6.528 -0.3552  0.1002 -0.0910
    1DIPC   GL2 9088   9.193   6.762   6.504  0.1865  0.0762 -0.2252
    1DIPC   C1A 9089   9.517   6.795   6.151  0.1176 -0.0375 -0.0362
    1DIPC   D2A 9090   9.686   6.743   5.705 -0.0457  0.0940  0.1780
    1DIPC   D3A 9091   9.991   6.492   5.670 -0.1531 -0.2812 -0.2872
    1DIPC   C4A 9092   9.942   6.072   5.914 -0.4455  0.0820 -0.1849
    1DIPC   C1B 9093   9.012   7.055   6.158  0.2110  0.1512  0.2352
    1DIPC   D2B 9094   8.678   7.101   5.901  0.3192 -0.1381 -0.4365
    1DIPC   D3B 9095   8.835   7.056   5.557 -0.0760 -0.2582  0.3985
    1DIPC   C4B 9096   9.304   7.059   5.304 -0.0267  0.1977 -0.0947
    1DIPC   NC3 9097  12.932  24.750   6.000  0.0215 -0.1229  0.3021
    1DIPC   PO4 9098  12.879  25.107   5.856 -0.0181  0.5703  0.0752
    1DIPC   GL1 9099  12.643  24.973   5.540  0.0361 -0.0616 -0.2577
    1DIPC   GL2 9100  12.722  24.621   5.528 -0.0451 -0.1441  0.1160
    1DIPC   C1A 9101  12.656  24.950   5.072  0.1086  0.0614  0.0951
    1DIPC   D2A 9102  12.725  25.246   4.767 -0.4425 -0.1385  0.2343
    1DIPC   D3A 9103  12.399  25.572   4.769 -0.1838  0.2970 -0.0304
    1DIPC   C4A 9104  12.022  25.655   5.082  0.2435 -0.1057 -0.1321
    1DIPC   C1B 9105  12.605  24.330   5.287 -0.1110  0.1184  0.1166
    1DIPC   D2B 9106  12.464  24.346   4.816  0.0366  0.3887  0.0716
    1DIPC   D3B 9107  12.699  24.726   4.591 -0.3485 -0.2188 -0.3169
    1DIPC   C4B 9108  13.121  24.610   4.296 -0.1110  0.1211 -0.1934
    1DIPC   NC3 9109  10.362   7.576   6.990  0.2286  0.1508  0.0989
    1DIPC   PO4 9110  10.403   7.853   6.660 -0.0995  0.4190 -0.1113
    1DIPC   GL1 9111  10.652   7.978   6.386 -0.0141  0.0072 -0.0308
    1DIPC   GL2 9112  10.478   7.985   6.151  0.0213 -0.0890  0.0707
    1DIPC   C1A 9113  11.013   7.874   6.142  0.1745 -0.2332 -0.0581
    1DIPC   D2A 9114  11.361   7.700   6.236 -0.0798  0.1795  0.0874
    1DIPC   D3A 9115  11.416   7.370   5.950 -0.0435 -0.1346 -0.0998
    1DIPC   C4A 9116  11.009   7.270   5.630  0.3453 -0.1525 -0.2446
    1DIPC   C1B 9117  10.586   8.124   5.727  0.0496  0.0841 -0.0985
    1DIPC   D2B 9118  10.415   7.998   5.292  0.0276 -0.0899 -0.0800
    1DIPC   D3B 9119  10.866   8.076   5.188 -0.0773 -0.1369  0.2899
    1DIPC   C4B 9120  10.936   8.470   5.405 -0.0610  0.3050  0.0493
    1DIPC   NC3 9121  19.951  27.903   7.397 -0.0961 -0.0594 -0.0204
    1DIPC   PO4 9122  19.980  27.834   6.931  0.0625  0.2914  0.1749
    1DIPC   GL1 9123  19.861  27.870   6.529  0.2574 -0.0345  0.0558
    1DIPC   GL2 9124  19.887  28.069   6.317  0.1493 -0.0069  0.2468
    1DIPC   C1A 9125  19.442  27.956   6.344 -0.3442 -0.0494 -0.0434
    1DIPC   D2A 9126  19.050  27.843   6.372  0.0243 -0.0520  0.2412
    1DIPC   D3A 9127  18.899  28.045   5.952  0.2198  0.2145 -0.1779
    1DIPC   C4A 9128  18.913  27.861   5.503 -0.0684 -0.2991  0.2051
    1DIPC   C1B 9129  19.830  28.235   5.918  0.1999 -0.0411  0.1945
    1DIPC   D2B 9130  19.715  28.503   5.570 -0.2337  0.2515 -0.1050
    1DIPC   D3B 9131  19.461  28.796   5.727  0.2110  0.0110 -0.2039
    1DIPC   C4B 9132  19.087  28.702   5.574  0.0389 -0.2065  0.1988
    1DIPC   NC3 9133   3.362   6.840   6.747  0.0664  0.0484 -0.1024
    1DIPC   PO4 9134   2.899   7.014   6.562 -0.0201 -0.0479 -0.0098
    1DIPC   GL1 9135   2.949   6.864   6.170  0.0520  0.0219 -0.1348
    1DIPC   GL2 9136   2.806   6.549   6.095  0.1033  0.0548  0.0888
    1DIPC   C1A 9137   2.802   7.171   5.869  0.0336 -0.0215  0.2769
    1DIPC   D2A 9138   2.964   7.304   5.566  0.0071 -0.2698  0.1196
    1DIPC   D3A 9139   3.283   7.291   5.279  0.0454  0.2415 -0.1079
    1DIPC   C4A 9140   3.461   7.509   4.955 -0.1455  0.2176  0.1273
    1DIPC   C1B 9141   3.002   6.477   5.819  0.1245 -0.1391  0.4695
    1DIPC   D2B 9142   3.263   6.341   5.412  0.1751  0.0307 -0.2041
    1DIPC   D3B 9143   3.205   6.546   4.964  0.2411 -0.1432  0.0280
    1DIPC   C4B 9144   2.832   6.732   4.806  0.0725 -0.1990  0.1290
    1DIPC   NC3 9145  27.077   8.771   6.941  0.2936  0.2347 -0.0463
    1DIPC   PO4 9146  26.875   9.304   6.777 -0.1847  0.0560 -0.0919
    1DIPC   GL1 9147  26.910   9.266   6.393 -0.2585  0.1324  0.0977
    1DIPC   GL2 9148  27.237   9.366   6.288 -0.0699 -0.1370 -0.2732
    1DIPC   C1A 9149  26.757   9.095   6.060  0.1389 -0.1404  0.2088
    1DIPC   D2A 9150  26.960   8.732   5.812  0.0640 -0.1426 -0.1578
    1DIPC   D3A 9151  26.572   8.883   5.603 -0.2008  0.0953 -0.0556
    1DIPC   C4A 9152  26.642   9.197   5.274  0.2927  0.0165  0.0353
    1DIPC   C1B 9153  27.265   9.112   5.926 -0.3886  0.0570  0.4127
    1DIPC   D2B 9154  27.601   8.908   5.596 -0.1307 -0.1902 -0.2004
    1DIPC   D3B 9155  27.726   9.150   5.975 -0.0244  0.2594 -0.0325
    1DIPC   C4B 9156  27.600   9.534   5.893  0.1209  0.3467 -0.1778
    1DIPC   NC3 9157  14.738  26.229   5.955  0.1219 -0.0430 -0.2454
    1DIPC   PO4 9158  14.653  25.923   5.566  0.0787  0.0810 -0.0054
    1DIPC   GL1 9159  14.413  25.987   5.357  0.0911  0.1161  0.0763
    1DIPC   GL2 9160  14.129  25.946   5.455  0.1640 -0.1917 -0.1825
    1DIPC   C1A 9161  14.400  26.369   5.088  0.2876  0.3432  0.0225
    1DIPC   D2A 9162  14.372  26.593   4.775  0.0764  0.0471 -0.1973
    1DIPC   D3A 9163  13.998  26.398   4.659 -0.0572 -0.3614 -0.0094
    1DIPC   C4A 9164  13.556  26.485   4.887  0.0108 -0.3547  0.0401
    1DIPC   C1B 9165  13.842  26.075   5.028  0.4722  0.2944 -0.0529
    1DIPC   D2B 9166  13.911  25.927   4.612 -0.1958 -0.0311 -0.0780
    1DIPC   D3B 9167  13.633  26.159   4.493  0.2806  0.0673  0.2276
    1DIPC   C4B 9168  13.435  26.291   4.142  0.0913  0.0708 -0.3806
    1DIPC   NC3 9169   7.064  26.444   6.043 -0.1788  0.2751  0.0942
    1DIPC   PO4 9170   7.288  26.209   5.883 -0.4961 -0.3202  0.1221
    1DIPC   GL1 9171   7.429  26.276   5.473 -0.1530  0.1267  0.0964
    1DIPC   GL2 9172   7.126  25.942   5.391 -0.1512  0.0859 -0.4106
    1DIPC   C1A 9173   7.924  26.298   5.361  0.0042 -0.2827 -0.2525
    1DIPC   D2A 9174   8.343  26.116   5.295  0.0358 -0.1774 -0.2762
    1DIPC   D3A 9175   8.790  26.314   5.123 -0.0502 -0.0815 -0.0292
    1DIPC   C4A 9176   8.801  26.086   4.727 -0.1470 -0.4499 -0.0564
    1DIPC   C1B 9177   7.018  25.939   5.004 -0.3804  0.2051 -0.2212
    1DIPC   D2B 9178   7.114  25.750   4.613 -0.2305  0.0762 -0.1856
    1DIPC   D3B 9179   7.408  25.395   4.684 -0.1598  0.1708 -0.1390
    1DIPC   C4B 9180   7.467  25.052   4.843 -0.2893 -0.0953 -0.1417
    1DIPC   NC3 9181  21.913   4.941   8.136  0.1896  0.2876 -0.0524
    1DIPC   PO4 9182  22.077   4.451   8.056 -0.1645  0.0012  0.1446
    1DIPC   GL1 9183  21.979   4.752   7.656  0.3908  0.1439 -0.1738
    1DIPC   GL2 9184  21.702   4.995   7.691  0.1917 -0.0116 -0.0615
    1DIPC   C1A 9185  21.886   4.829   7.261  0.0713 -0.0015 -0.0491
    1DIPC   D2A 9186  21.790   4.629   6.804  0.0481 -0.1225  0.0342
    1DIPC   D3A 9187  21.618   4.517   6.306 -0.1794 -0.0219  0.0567
    1DIPC   C4A 9188  21.867   4.414   5.934 -0.0393  0.2696 -0.1653
    1DIPC   C1B 9189  21.707   5.295   7.385  0.3153  0.0658 -0.1764
    1DIPC   D2B 9190  21.637   5.135   6.993 -0.1290 -0.1638  0.2502
    1DIPC   D3B 9191  21.423   5.420   6.809 -0.0835  0.0441 -0.0198
    1DIPC   C4B 9192  21.176   5.240   6.514  0.2298 -0.0703 -0.3778
    1DIPC   NC3 9193   1.662  28.317   6.131 -0.1866  0.1385  0.1236
    1DIPC   PO4 9194   1.881  27.905   5.944 -0.2269 -0.1712 -0.1387
    1DIPC   GL1 9195   2.010  28.273   5.786 -0.3711  0.1274 -0.0323
    1DIPC   GL2 9196   2.349  28.353   5.690  0.1327  0.0058 -0.0643
    1DIPC   C1A 9197   1.840  28.284   5.364 -0.1378 -0.3525  0.0692
    1DIPC   D2A 9198   1.976  28.167   4.889  0.1111  0.0723 -0.2179
    1DIPC   D3A 9199   2.157  28.003   4.526 -0.1988 -0.1078  0.1113
    1DIPC   C4A 9200   2.054  28.050   4.059 -0.4109  0.3093 -0.2046
    1DIPC   C1B 9201   2.353  28.234   5.270 -0.2143 -0.2769 -0.1979
    1DIPC   D2B 9202   2.521  28.356   4.797  0.1635 -0.0754  0.0967
    1DIPC   D3B 9203   2.406  28.585   4.440 -0.0748  0.1417  0.0251
    1DIPC   C4B 9204   2.755  28.786   4.182 -0.3180 -0.1443 -0.0116
    1DIPC   NC3 9205   2.675  27.079   5.431  0.0702 -0.4507  0.0876
    1DIPC   PO4 9206   2.593  26.696   5.266 -0.2846  0.4266 -0.3529
    1DIPC   GL1 9207   2.729  26.844   4.826 -0.1468  0.0646  0.0502
    1DIPC   GL2 9208   2.776  27.203   4.965  0.2432 -0.5140  0.1454
    1DIPC   C1A 9209   3.056  27.049   4.504  0.0471  0.2255 -0.2931
    1DIPC   D2A 9210   3.188  26.807   4.285  0.2399 -0.0722 -0.1193
    1DIPC   D3A 9211   3.165  26.770   3.827  0.3894 -0.3778  0.1103
    1DIPC   C4A 9212   3.597  26.618   3.492 -0.3343  0.0565 -0.4004
    1DIPC   C1B 9213   2.576  27.293   4.571  0.0296 -0.2881  0.1335
    1DIPC   D2B 9214   2.492  27.687   4.300 -0.2325  0.0789  0.1129
    1DIPC   D3B 9215   2.078  27.559   4.166  0.0498 -0.2399  0.1917
    1DIPC   C4B 9216   1.750  27.721   3.921  0.1746 -0.1325  0.1156
    1DIPC   NC3 9217   3.260  23.033   5.908 -0.4251 -0.1141 -0.3469
    1DIPC   PO4 9218   3.428  23.392   6.149  0.1818  0.0099 -0.0507
    1DIPC   GL1 9219   3.416  23.454   5.666  0.0333  0.2344 -0.3283
    1DIPC   GL2 9220   3.622  23.325   5.557 -0.1818 -0.0577  0.2132
    1DIPC   C1A 9221   3.194  23.657   5.306  0.1777 -0.4851 -0.1457
    1DIPC   D2A 9222   3.155  23.656   4.846  0.0113 -0.0776 -0.0547
    1DIPC   D3A 9223   3.149  24.098   4.803 -0.1664 -0.1062  0.0875
    1DIPC   C4A 9224   2.866  24.276   4.504 -0.0177  0.1111 -0.0749
    1DIPC   C1B 9225   3.624  23.498   5.143 -0.3807  0.2452  0.2088
    1DIPC   D2B 9226   3.821  23.418   4.642  0.0763 -0.1144 -0.0179
    1DIPC   D3B 9227   3.426  23.590   4.419  0.2554  0.1949  0.0047
    1DIPC   C4B 9228   3.136  23.290   4.445 -0.1066  0.0511  0.0051
    1DIPC   NC3 9229   7.000  28.512   6.784 -0.1162 -0.3523 -0.1929
    1DIPC   PO4 9230   7.195  28.220   6.472  0.3740 -0.0117  0.4802
    1DIPC   GL1 9231   7.231  28.505   6.147  0.4326  0.1525  0.2653
    1DIPC   GL2 9232   7.145  28.243   5.918 -0.1656  0.3188  0.2036
    1DIPC   C1A 9233   7.232  28.754   5.775  0.1364 -0.0712  0.1177
    1DIPC   D2A 9234   7.314  28.947   5.394 -0.2195  0.1753  0.2330
    1DIPC   D3A 9235   7.101  29.020   5.009  0.0940  0.0948 -0.1013
    1DIPC   C4A 9236   6.986  29.201   4.584 -0.1753 -0.0681 -0.3544
    1DIPC   C1B 9237   7.232  28.378   5.426 -0.0401 -0.0941  0.0136
    1DIPC   D2B 9238   6.901  28.570   5.167  0.2440  0.2242  0.1600
    1DIPC   D3B 9239   7.058  28.530   4.727  0.0888 -0.1716 -0.1229
    1DIPC   C4B 9240   7.284  28.217   4.457 -0.4187  0.0026  0.4828
    1DIPC   NC3 9241   9.956  16.631   6.195 -0.3191 -0.1370  0.0470
    1DIPC   PO4 9242   9.792  17.001   5.856  0.1240  0.0874  0.0771
    1DIPC   GL1 9243   9.490  17.043   5.529  0.0437  0.1392  0.1379
    1DIPC   GL2 9244   9.388  16.760   5.458  0.0184 -0.1057  0.0395
    1DIPC   C1A 9245   9.297  17.142   5.080  0.1389 -0.2920  0.1866
    1DIPC   D2A 9246   8.960  17.371   4.979  0.0873 -0.1440 -0.0521
    1DIPC   D3A 9247   9.116  17.741   4.788  0.2264 -0.1255  0.1457
    1DIPC   C4A 9248   8.819  17.897   4.529 -0.1583  0.3748 -0.0129
    1DIPC   C1B 9249   9.496  16.465   5.203  0.2175  0.2281  0.0375
    1DIPC   D2B 9250   9.563  16.235   4.792 -0.1497 -0.0765 -0.0429
    1DIPC   D3B 9251   9.758  16.580   4.696 -0.2566 -0.2374 -0.0088
    1DIPC   C4B 9252   9.781  16.943   4.915  0.1480  0.1188 -0.1383
    1DIPC   NC3 9253  21.451  28.150   6.557 -0.1154  0.0717 -0.1363
    1DIPC   PO4 9254  21.158  28.536   6.598  0.1120  0.3258  0.1883
    1DIPC   GL1 9255  20.981  28.742   6.316  0.0434  0.1556  0.0061
    1DIPC   GL2 9256  20.881  29.083   6.469  0.1323 -0.0769 -0.1175
    1DIPC   C1A 9257  20.657  28.780   5.916  0.1598  0.2580  0.0783
    1DIPC   D2A 9258  20.683  28.862   5.458 -0.2254 -0.1626 -0.3017
    1DIPC   D3A 9259  20.990  29.250   5.367 -0.1256  0.0427  0.0813
    1DIPC   C4A 9260  21.321  29.492   5.381 -0.0130 -0.1544  0.4761
    1DIPC   C1B 9261  20.901  29.247   6.096 -0.0907 -0.1295 -0.2623
    1DIPC   D2B 9262  20.616  29.253   5.793  0.1896  0.1354  0.0033
    1DIPC   D3B 9263  20.463  29.553   5.716  0.0595 -0.1787  0.0832
    1DIPC   C4B 9264  20.218  29.777   5.416 -0.1095 -0.0799  0.1341
    1DIPC   NC3 9265  12.637  28.854   7.137  0.1511 -0.1623  0.0307
    1DIPC   PO4 9266  12.488  29.334   7.183 -0.0035 -0.1144 -0.0379
    1DIPC   GL1 9267  12.632  29.205   6.741 -0.0758 -0.0829  0.0190
    1DIPC   GL2 9268  12.974  29.186   6.547 -0.0045  0.1607 -0.3018
    1DIPC   C1A 9269  12.418  29.183   6.347  0.0543  0.1091 -0.2189
    1DIPC   D2A 9270  12.489  29.241   5.898  0.4747  0.1930 -0.0098
    1DIPC   D3A 9271  12.358  29.337   5.571  0.0846 -0.0131 -0.0647
    1DIPC   C4A 9272  12.164  29.713   5.385  0.2147  0.1998 -0.2521
    1DIPC   C1B 9273  12.910  29.353   6.172 -0.0482  0.0204  0.1152
    1DIPC   D2B 9274  12.974  29.695   5.972 -0.1172 -0.0287 -0.2163
    1DIPC   D3B 9275  12.779  29.549   5.581 -0.2215 -0.3405  0.0746
    1DIPC   C4B 9276  12.555  29.485   5.064  0.1982  0.1614  0.0436
    1DIPC   NC3 9277  15.999  22.935   5.664 -0.0499 -0.2401 -0.3926
    1DIPC   PO4 9278  16.042  22.871   5.218  0.3988  0.0053 -0.1110
    1DIPC   GL1 9279  16.024  22.778   4.766 -0.0304  0.1081  0.0420
    1DIPC   GL2 9280  16.077  22.429   4.678 -0.0043 -0.2758 -0.2825
    1DIPC   C1A 9281  15.892  22.993   4.390  0.0003  0.0749  0.0513
    1DIPC   D2A 9282  15.920  23.121   3.975  0.0186 -0.0703 -0.0080
    1DIPC   D3A 9283  15.537  23.391   3.856  0.0655  0.1102 -0.0181
    1DIPC   C4A 9284  15.334  23.465   3.515 -0.0341  0.0275  0.2862
    1DIPC   C1B 9285  16.128  22.621   4.307  0.1038  0.1082  0.3432
    1DIPC   D2B 9286  16.186  22.722   3.842  0.2022  0.0838 -0.3125
    1DIPC   D3B 9287  16.208  22.275   3.570  0.0183 -0.0254  0.0665
    1DIPC   C4B 9288  16.380  22.136   3.206  0.1138  0.0218 -0.2641
    1DIPC   NC3 9289  18.250  26.359   6.212 -0.4106  0.2191 -0.2876
    1DIPC   PO4 9290  17.792  26.465   6.162 -0.4380  0.4283  0.2201
    1DIPC   GL1 9291  17.904  26.785   5.911 -0.2484 -0.2017 -0.1758
    1DIPC   GL2 9292  18.056  27.086   5.895  0.1447  0.2471  0.0150
    1DIPC   C1A 9293  17.992  26.859   5.452  0.1935  0.2092 -0.4514
    1DIPC   D2A 9294  17.903  26.790   5.006 -0.1402  0.1981 -0.1439
    1DIPC   D3A 9295  18.112  26.707   4.644  0.3110  0.2489  0.1757
    1DIPC   C4A 9296  18.287  26.984   4.564 -0.3080 -0.0605 -0.0107
    1DIPC   C1B 9297  18.150  27.487   5.593  0.2645 -0.0028 -0.0030
    1DIPC   D2B 9298  17.924  27.887   5.322 -0.0639 -0.0091 -0.3335
    1DIPC   D3B 9299  18.156  27.995   4.940 -0.0493  0.1754  0.0200
    1DIPC   C4B 9300  18.440  28.340   4.786 -0.2564 -0.1597 -0.0960
    1DIPC   NC3 9301  14.397   7.407   7.949  0.0012  0.1331  0.0514
    1DIPC   PO4 9302  14.348   7.771   7.611  0.1455  0.1453  0.0366
    1DIPC   GL1 9303  14.292   7.871   7.288  0.0508  0.0757 -0.3761
    1DIPC   GL2 9304  14.015   8.057   7.354 -0.0241 -0.0043 -0.2848
    1DIPC   C1A 9305  14.164   7.711   6.908  0.1655 -0.1293 -0.2303
    1DIPC   D2A 9306  13.857   7.594   6.590  0.1043  0.4114  0.2359
    1DIPC   D3A 9307  13.755   7.956   6.776  0.0751  0.1650 -0.2695
    1DIPC   C4A 9308  13.526   7.982   7.159 -0.1081  0.1544  0.1380
    1DIPC   C1B 9309  13.858   8.431   7.148 -0.0379  0.1492  0.1811
    1DIPC   D2B 9310  13.593   8.414   6.841  0.1946 -0.1106 -0.0601
    1DIPC   D3B 9311  13.756   8.467   6.562  0.0749  0.0968  0.3455
    1DIPC   C4B 9312  13.691   8.221   6.297 -0.1639 -0.0296 -0.2212
    1DIPC   NC3 9313   1.712  21.732   6.788 -0.1404  0.3420  0.0122
    1DIPC   PO4 9314   1.721  21.317   6.587 -0.2514  0.0825  0.0151
    1DIPC   GL1 9315   1.929  21.526   6.242 -0.3389 -0.0449  0.2455
    1DIPC   GL2 9316   2.260  21.414   6.099  0.2882  0.1391 -0.2955
    1DIPC   C1A 9317   1.854  21.806   5.981 -0.1069 -0.0069 -0.2109
    1DIPC   D2A 9318   1.767  22.191   5.751 -0.0266 -0.2078  0.0236
    1DIPC   D3A 9319   1.764  21.844   5.466 -0.1707  0.1209  0.1919
    1DIPC   C4A 9320   1.974  21.408   5.479  0.2938  0.1391  0.2917
    1DIPC   C1B 9321   2.562  21.426   5.825 -0.4269  0.0460  0.0502
    1DIPC   D2B 9322   2.820  21.713   5.748 -0.1935 -0.2093  0.0573
    1DIPC   D3B 9323   2.918  21.544   5.347  0.0471  0.3548 -0.0272
    1DIPC   C4B 9324   3.240  21.384   5.525  0.0950 -0.0137  0.2702
    1DIPC   NC3 9325   6.903   8.417   6.824  0.0849  0.0223 -0.0449
    1DIPC   PO4 9326   7.011   8.189   6.537 -0.1211 -0.0633 -0.2683
    1DIPC   GL1 9327   7.176   8.037   6.178 -0.0425  0.1107  0.2908
    1DIPC   GL2 9328   6.979   7.790   6.129  0.0330 -0.2885  0.1832
    1DIPC   C1A 9329   7.245   7.987   5.765 -0.2810  0.1426 -0.2325
    1DIPC   D2A 9330   7.098   8.151   5.370  0.1447  0.3026 -0.0440
    1DIPC   D3A 9331   7.062   8.481   5.403 -0.2324 -0.2476 -0.2376
    1DIPC   C4A 9332   6.781   8.778   5.265 -0.0055  0.0069  0.1413
    1DIPC   C1B 9333   7.048   7.556   5.776  0.0677 -0.2103  0.1691
    1DIPC   D2B 9334   6.771   7.606   5.453 -0.0055 -0.3037  0.2010
    1DIPC   D3B 9335   7.194   7.647   5.238  0.0555  0.0148  0.0164
    1DIPC   C4B 9336   7.573   7.919   5.355 -0.1592 -0.0596 -0.1166
    1DIPC   NC3 9337   3.723  19.449   6.573  0.0987  0.2254 -0.2800
    1DIPC   PO4 9338   4.126  19.608   6.495 -0.2998 -0.0467 -0.0913
    1DIPC   GL1 9339   4.027  19.526   6.162 -0.2083  0.0599  0.2896
    1DIPC   GL2 9340   4.143  19.757   6.009 -0.0677 -0.1340 -0.2011
    1DIPC   C1A 9341   4.047  19.376   5.697 -0.3860 -0.0616 -0.3602
    1DIPC   D2A 9342   4.091  19.592   5.361 -0.2575 -0.2604 -0.1330
    1DIPC   D3A 9343   3.866  20.004   5.470  0.1378  0.4235  0.1078
    1DIPC   C4A 9344   3.750  20.022   5.985 -0.1439 -0.1071 -0.0169
    1DIPC   C1B 9345   4.351  19.905   5.712  0.2291 -0.1835  0.0723
    1DIPC   D2B 9346   4.397  19.981   5.334  0.0530 -0.0311 -0.3182
    1DIPC   D3B 9347   4.126  20.251   4.995 -0.4354 -0.2474  0.3956
    1DIPC   C4B 9348   4.331  20.466   4.643 -0.0016  0.1981 -0.0102
    1DIPC   NC3 9349  12.337   8.421   7.424 -0.3225 -0.0143  0.1482
    1DIPC   PO4 9350  12.010   8.679   7.260 -0.1342  0.1461  0.3876
    1DIPC   GL1 9351  11.884   8.739   6.818 -0.1724  0.0957  0.0870
    1DIPC   GL2 9352  12.121   8.915   6.714 -0.2476  0.0528  0.0664
    1DIPC   C1A 9353  11.933   8.570   6.404 -0.0775  0.0661  0.1126
    1DIPC   D2A 9354  12.167   8.152   6.305  0.1002 -0.0423 -0.0113
    1DIPC   D3A 9355  12.590   8.206   6.114  0.1878  0.2713  0.3463
    1DIPC   C4A 9356  12.807   8.545   5.814 -0.0638  0.1186 -0.0920
    1DIPC   C1B 9357  12.278   8.990   6.253  0.1587 -0.0713 -0.0264
    1DIPC   D2B 9358  11.976   8.933   5.976  0.1815  0.0470  0.2208
    1DIPC   D3B 9359  12.038   8.784   5.594 -0.0397 -0.0076 -0.0360
    1DIPC   C4B 9360  11.782   8.581   5.362 -0.2210 -0.0776  0.1262
    1DIPC   NC3 9361  27.694  27.404   6.065 -0.0939 -0.0675  0.0342
    1DIPC   PO4 9362  27.795  27.904   6.012  0.1494  0.0062  0.5277
    1DIPC   GL1 9363  27.685  28.077   5.632  0.0363  0.1189 -0.2132
    1DIPC   GL2 9364  27.946  27.895   5.489 -0.1020 -0.0375  0.0708
    1DIPC   C1A 9365  27.427  28.293   5.437 -0.0849  0.3943 -0.0347
    1DIPC   D2A 9366  27.434  28.350   5.069 -0.1096 -0.1388  0.2366
    1DIPC   D3A 9367  27.844  28.292   5.170  0.0427 -0.3099 -0.0744
    1DIPC   C4A 9368  28.207  27.962   5.017  0.1642 -0.0461  0.2375
    1DIPC   C1B 9369  27.599  27.863   5.181 -0.0909  0.1205  0.1930
    1DIPC   D2B 9370  27.616  28.103   4.732 -0.2406  0.2625  0.0996
    1DIPC   D3B 9371  27.518  27.704   4.737  0.0089 -0.2681 -0.0882
    1DIPC   C4B 9372  27.835  27.356   4.483  0.1671  0.0130 -0.2180
    1DIPC   NC3 9373   9.397  14.279   6.307  0.3979  0.0370  0.2387
    1DIPC   PO4 9374   9.571  13.902   6.231  0.3232 -0.0780  0.1465
    1DIPC   GL1 9375   9.748  13.805   5.833  0.5438  0.2108 -0.0276
    1DIPC   GL2 9376   9.800  13.489   5.964 -0.0265 -0.1475 -0.0888
    1DIPC   C1A 9377   9.892  13.533   5.478  0.4030  0.1986  0.4171
    1DIPC   D2A 9378   9.841  13.492   5.059 -0.0935  0.1349 -0.3144
    1DIPC   D3A 9379   9.551  13.135   5.069 -0.1451 -0.0676 -0.0761
    1DIPC   C4A 9380   9.633  12.807   4.738  0.0780  0.0071  0.0213
    1DIPC   C1B 9381   9.789  13.101   5.692  0.0138  0.2695 -0.2197
    1DIPC   D2B 9382   9.837  12.735   5.524  0.1945  0.1337  0.2675
    1DIPC   D3B 9383  10.222  12.470   5.474  0.0007 -0.0191  0.1841
    1DIPC   C4B 9384  10.221  12.241   5.025 -0.1763  0.0423  0.2968
    1DIPC   NC3 9385  29.030   3.245   6.774  0.1713  0.1347  0.3069
    1DIPC   PO4 9386  29.430   3.424   6.668 -0.0611 -0.1811 -0.0505
    1DIPC   GL1 9387  29.270   3.274   6.265 -0.0979 -0.1154  0.2302
    1DIPC   GL2 9388  29.140   3.518   5.984 -0.0219 -0.1822  0.0224
    1DIPC   C1A 9389  29.031   3.054   5.945  0.0737  0.2346  0.1473
    1DIPC   D2A 9390  28.678   3.218   5.879 -0.0999  0.1160 -0.2714
    1DIPC   D3A 9391  28.605   2.756   5.922  0.3326  0.0569 -0.3009
    1DIPC   C4A 9392  28.749   2.407   5.554  0.2007 -0.0273 -0.0858
    1DIPC   C1B 9393  29.167   3.780   5.588 -0.1205  0.0270  0.1934
    1DIPC   D2B 9394  28.952   3.875   5.179 -0.2082 -0.1527  0.1344
    1DIPC   D3B 9395  29.383   3.912   5.018  0.0457 -0.2343 -0.1751
    1DIPC   C4B 9396  29.659   3.802   5.346 -0.1269  0.2324 -0.0935
    1DIPC   NC3 9397  26.576  26.471   6.418  0.1083 -0.0425  0.3292
    1DIPC   PO4 9398  26.400  26.084   6.561 -0.1200 -0.1061 -0.3145
    1DIPC   GL1 9399  26.280  26.202   6.103 -0.0325  0.2969 -0.0903
    1DIPC   GL2 9400  26.028  25.984   5.878 -0.2813  0.1172  0.0090
    1DIPC   C1A 9401  26.257  26.413   5.754 -0.1567 -0.1092  0.1865
    1DIPC   D2A 9402  26.275  26.663   5.365 -0.2666  0.2572  0.0511
    1DIPC   D3A 9403  25.889  26.657   5.333  0.6442 -0.2416  0.2436
    1DIPC   C4A 9404  25.669  26.917   5.003  0.3233 -0.0553 -0.0451
    1DIPC   C1B 9405  25.878  26.182   5.478 -0.1225  0.0764  0.0387
    1DIPC   D2B 9406  26.055  26.234   5.012  0.0473 -0.0136 -0.3555
    1DIPC   D3B 9407  26.119  26.631   4.859 -0.2435  0.0718 -0.1461
    1DIPC   C4B 9408  26.341  27.105   5.083 -0.1801  0.1636  0.0493
    1DIPC   NC3 9409   3.105  14.268   6.290 -0.0928  0.2161 -0.1047
    1DIPC   PO4 9410   3.464  14.334   6.158  0.1724 -0.1368  0.0094
    1DIPC   GL1 9411   3.461  14.764   5.860  0.0535 -0.3115 -0.1993
    1DIPC   GL2 9412   3.323  15.039   5.965 -0.1958  0.0955  0.0623
    1DIPC   C1A 9413   3.479  14.978   5.467 -0.1220  0.0727 -0.1058
    1DIPC   D2A 9414   3.269  15.136   5.174  0.0385 -0.1925  0.0034
    1DIPC   D3A 9415   3.446  15.192   4.842  0.2075 -0.1324 -0.0226
    1DIPC   C4A 9416   3.838  14.957   4.820 -0.1894  0.0282 -0.1302
    1DIPC   C1B 9417   3.063  15.050   5.716  0.0123 -0.1808 -0.0063
    1DIPC   D2B 9418   3.019  15.403   5.495  0.0315  0.1615 -0.1522
    1DIPC   D3B 9419   3.440  15.470   5.599  0.3621 -0.0207  0.0430
    1DIPC   C4B 9420   3.622  15.860   5.416 -0.0052 -0.0870 -0.1797
    1DIPC   NC3 9421   5.596   5.529   6.801  0.0837  0.1771 -0.0341
    1DIPC   PO4 9422   5.702   5.856   6.494  0.0894 -0.1576 -0.1061
    1DIPC   GL1 9423   5.898   5.657   6.117  0.1440  0.2533  0.0458
    1DIPC   GL2 9424   5.840   5.362   6.097  0.0004  0.1841 -0.0509
    1DIPC   C1A 9425   5.917   5.661   5.678  0.1217  0.3776  0.0107
    1DIPC   D2A 9426   5.523   5.607   5.347 -0.0029 -0.0698 -0.1733
    1DIPC   D3A 9427   5.510   6.091   5.111  0.2903  0.1561  0.1731
    1DIPC   C4A 9428   5.665   5.851   4.810  0.1235  0.0237  0.1336
    1DIPC   C1B 9429   5.628   5.215   5.742  0.0805 -0.2864  0.0683
    1DIPC   D2B 9430   5.293   5.128   5.550 -0.0423  0.2404  0.0706
    1DIPC   D3B 9431   5.006   5.148   5.955 -0.1227  0.0555 -0.0244
    1DIPC   C4B 9432   4.910   4.728   6.108 -0.0540  0.0464 -0.0924
    1DIPC   NC3 9433  11.956  27.128   6.564 -0.0424 -0.2529  0.0925
    1DIPC   PO4 9434  11.497  27.220   6.427 -0.0473  0.3802 -0.0322
    1DIPC   GL1 9435  11.689  27.281   5.969  0.0410 -0.1705  0.0613
    1DIPC   GL2 9436  11.959  27.348   5.933 -0.0663 -0.1983  0.0382
    1DIPC   C1A 9437  11.675  27.387   5.486  0.1703 -0.1493  0.0573
    1DIPC   D2A 9438  11.828  27.335   5.047 -0.2342 -0.0494 -0.2114
    1DIPC   D3A 9439  11.417  27.459   5.026 -0.0543 -0.4501 -0.2396
    1DIPC   C4A 9440  11.199  27.240   5.360  0.0158 -0.0611  0.0086
    1DIPC   C1B 9441  11.920  27.792   5.759  0.0614  0.1570  0.1397
    1DIPC   D2B 9442  12.243  28.134   5.697  0.1745  0.0046 -0.1178
    1DIPC   D3B 9443  12.330  28.048   5.237 -0.0564 -0.1742  0.3638
    1DIPC   C4B 9444  12.343  28.388   4.977 -0.0325 -0.0001 -0.1463
    1DIPC   NC3 9445  28.813  20.052   6.232 -0.1983 -0.1314  0.0078
    1DIPC   PO4 9446  29.286  20.149   6.330  0.0762  0.0034 -0.2264
    1DIPC   GL1 9447  29.273  20.134   5.929 -0.2447  0.0329  0.2277
    1DIPC   GL2 9448  29.014  19.924   5.755  0.1750 -0.0294 -0.1497
    1DIPC   C1A 9449  29.419  20.264   5.569  0.0000 -0.1952 -0.3231
    1DIPC   D2A 9450  29.295  20.317   5.158 -0.0341  0.0775  0.1082
    1DIPC   D3A 9451  29.502  20.591   4.845  0.2996  0.1343  0.0834
    1DIPC   C4A 9452   0.106  20.520   4.870  0.1707 -0.0333 -0.1268
    1DIPC   C1B 9453  28.930  20.057   5.317  0.0699  0.2831 -0.3403
    1DIPC   D2B 9454  28.843  20.021   4.952 -0.2188 -0.3174 -0.1123
    1DIPC   D3B 9455  28.810  20.255   4.570 -0.0258  0.1944 -0.2644
    1DIPC   C4B 9456  28.580  20.004   4.291 -0.3082 -0.2258  0.1232
    1DIPC   NC3 9457  25.922   0.335   6.855 -0.0812  0.2257 -0.1206
    1DIPC   PO4 9458  25.503   0.404   7.100 -0.1569  0.0942  0.2096
    1DIPC   GL1 9459  25.443   0.604   6.681 -0.0578  0.1788 -0.0781
    1DIPC   GL2 9460  25.588   0.465   6.496 -0.2080 -0.0313 -0.0419
    1DIPC   C1A 9461  25.166   0.811   6.373 -0.1366 -0.0795 -0.0556
    1DIPC   D2A 9462  25.174   0.812   6.002 -0.3111 -0.0836 -0.2879
    1DIPC   D3A 9463  24.821   0.713   5.641  0.0995  0.1325  0.1026
    1DIPC   C4A 9464  24.542   0.943   5.371  0.0333  0.1349  0.1350
    1DIPC   C1B 9465  25.644   0.641   6.102 -0.1716  0.0170  0.3011
    1DIPC   D2B 9466  25.839   0.450   5.780 -0.4927 -0.0312  0.1309
    1DIPC   D3B 9467  25.870   0.300   5.322  0.2176 -0.1012  0.3930
    1DIPC   C4B 9468  26.214   0.108   5.158 -0.0811  0.2124 -0.2329
    1DIPC   NC3 9469   4.898  21.385   6.053 -0.0977 -0.1081  0.1909
    1DIPC   PO4 9470   5.158  20.985   6.040  0.0704  0.2762  0.1672
    1DIPC   GL1 9471   4.963  21.028   5.683  0.0280  0.2890  0.0565
    1DIPC   GL2 9472   4.977  21.428   5.574  0.4281  0.0471  0.0961
    1DIPC   C1A 9473   4.972  20.877   5.168 -0.3150  0.3021  0.0235
    1DIPC   D2A 9474   4.879  20.602   4.726 -0.1840 -0.1807 -0.2211
    1DIPC   D3A 9475   5.188  20.296   4.662 -0.1128  0.0004 -0.3422
    1DIPC   C4A 9476   5.526  20.384   4.865  0.0744 -0.0558 -0.0480
    1DIPC   C1B 9477   4.745  21.671   5.287  0.1434  0.0474 -0.1041
    1DIPC   D2B 9478   4.658  21.842   4.878  0.2634 -0.2225  0.2551
    1DIPC   D3B 9479   4.817  22.112   4.573  0.1928  0.0199 -0.0276
    1DIPC   C4B 9480   4.869  22.440   4.829  0.1081 -0.0349  0.2400
    1DIPC   NC3 9481   2.612   9.480   6.444  0.1389  0.0884 -0.2228
    1DIPC   PO4 9482   2.190   9.676   6.264 -0.2206 -0.0753  0.1005
    1DIPC   GL1 9483   2.240   9.713   5.805 -0.3301 -0.1156 -0.0565
    1DIPC   GL2 9484   1.843   9.639   5.826 -0.2770 -0.1005 -0.0912
    1DIPC   C1A 9485   2.210   9.822   5.308  0.1009  0.2048  0.0261
    1DIPC   D2A 9486   2.201  10.016   4.841 -0.4854  0.0281  0.2171
    1DIPC   D3A 9487   2.530   9.718   4.739  0.2319  0.1116 -0.0058
    1DIPC   C4A 9488   2.750   9.347   4.500 -0.0871  0.2642  0.5038
    1DIPC   C1B 9489   1.769   9.689   5.424  0.0953 -0.0520  0.0065
    1DIPC   D2B 9490   1.857   9.556   4.963 -0.1226  0.0265  0.1406
    1DIPC   D3B 9491   1.682  10.034   5.000 -0.2736  0.1083  0.0820
    1DIPC   C4B 9492   1.801  10.235   4.567 -0.0077  0.0828  0.0963
    1DIPC   NC3 9493  26.302  28.544   6.638  0.0509 -0.0982  0.3949
    1DIPC   PO4 9494  26.748  28.419   6.511 -0.0832 -0.1642  0.2225
    1DIPC   GL1 9495  26.801  28.373   6.013  0.0138 -0.3253  0.0045
    1DIPC   GL2 9496  26.843  28.707   5.977  0.0559 -0.0679 -0.2055
    1DIPC   C1A 9497  26.958  28.503   5.555 -0.2191 -0.0780 -0.2375
    1DIPC   D2A 9498  26.890  28.759   5.211 -0.0196 -0.0496 -0.0022
    1DIPC   D3A 9499  26.864  28.611   4.769  0.0936 -0.0350 -0.0381
    1DIPC   C4A 9500  26.472  28.412   4.689  0.0639 -0.1216 -0.0425
    1DIPC   C1B 9501  27.194  28.978   5.746 -0.0545 -0.1191  0.3035
    1DIPC   D2B 9502  27.439  29.287   5.654 -0.0297 -0.3269  0.0559
    1DIPC   D3B 9503  27.160  29.533   5.743 -0.0727 -0.1250  0.0036
    1DIPC   C4B 9504  27.222  29.836   5.375 -0.2712  0.0003 -0.0339
    1DIPC   NC3 9505  11.518  22.145   5.669  0.2962 -0.2988 -0.1066
    1DIPC   PO4 9506  11.855  22.301   5.414 -0.1225  0.1569  0.1391
    1DIPC   GL1 9507  11.958  22.163   4.933 -0.1159  0.0844  0.1599
    1DIPC   GL2 9508  11.868  21.863   5.100 -0.0310 -0.2417 -0.2818
    1DIPC   C1A 9509  12.048  22.022   4.456 -0.0720  0.0261 -0.0983
    1DIPC   D2A 9510  12.208  21.734   4.118 -0.0698 -0.0037  0.0688
    1DIPC   D3A 9511  12.163  22.032   3.902 -0.0098  0.2230  0.0970
    1DIPC   C4A 9512  12.401  22.152   3.568  0.0490 -0.0351  0.1704
    1DIPC   C1B 9513  11.921  21.662   4.751 -0.0049  0.1420 -0.0999
    1DIPC   D2B 9514  12.327  21.590   4.630 -0.0508 -0.0447 -0.0657
    1DIPC   D3B 9515  12.517  21.312   4.278  0.1382 -0.1150 -0.0630
    1DIPC   C4B 9516  12.249  20.985   3.927  0.0030 -0.0280 -0.1557
    1DIPC   NC3 9517  25.915  26.239   7.240  0.4636 -0.1658  0.0265
    1DIPC   PO4 9518  25.857  25.993   6.830 -0.0262 -0.0857  0.0696
    1DIPC   GL1 9519  25.985  25.799   6.420 -0.0187 -0.0930 -0.0860
    1DIPC   GL2 9520  26.312  25.592   6.222 -0.0681 -0.1758 -0.0590
    1DIPC   C1A 9521  25.850  25.533   5.999 -0.0082  0.1142  0.0042
    1DIPC   D2A 9522  25.802  25.392   5.575 -0.1581  0.4324  0.0022
    1DIPC   D3A 9523  26.178  25.764   5.495  0.3102  0.0459 -0.2022
    1DIPC   C4A 9524  26.320  25.825   5.226  0.1976  0.0748 -0.1444
    1DIPC   C1B 9525  26.373  25.363   5.845  0.0663  0.1705  0.2039
    1DIPC   D2B 9526  26.239  25.136   5.438 -0.1444 -0.1963  0.1114
    1DIPC   D3B 9527  26.135  25.310   5.089 -0.2521 -0.1949 -0.2529
    1DIPC   C4B 9528  25.759  25.404   5.059 -0.2311  0.0186  0.3832
    1DIPC   NC3 9529   3.072  17.327   6.832 -0.0852 -0.2707  0.3439
    1DIPC   PO4 9530   2.609  17.105   6.943  0.1168  0.0888 -0.1869
    1DIPC   GL1 9531   2.656  16.996   6.512 -0.3234 -0.0025 -0.1408
    1DIPC   GL2 9532   2.763  17.296   6.284  0.2460  0.3032  0.1279
    1DIPC   C1A 9533   2.616  16.885   6.116  0.2824  0.1354  0.1277
    1DIPC   D2A 9534   2.601  17.181   5.834  0.1663  0.0710  0.5436
    1DIPC   D3A 9535   2.574  16.836   5.632 -0.1212  0.3195 -0.0823
    1DIPC   C4A 9536   2.636  16.439   5.478  0.2581 -0.0336  0.0665
    1DIPC   C1B 9537   3.060  17.200   6.002 -0.3954 -0.0652 -0.0237
    1DIPC   D2B 9538   3.469  16.956   5.818 -0.1683 -0.1394 -0.1580
    1DIPC   D3B 9539   3.242  16.715   5.472  0.1362 -0.2688  0.0873
    1DIPC   C4B 9540   3.409  16.391   5.244 -0.0594  0.0503  0.0934
    1DIPC   NC3 9541  16.646  15.486   6.146  0.1258 -0.1033  0.3263
    1DIPC   PO4 9542  16.691  15.834   6.407 -0.0532 -0.0432 -0.0477
    1DIPC   GL1 9543  17.021  15.858   6.157 -0.0647 -0.2719 -0.1494
    1DIPC   GL2 9544  17.059  15.718   5.838  0.1502 -0.2660  0.2096
    1DIPC   C1A 9545  17.372  16.087   5.943  0.0637  0.2213 -0.1988
    1DIPC   D2A 9546  17.799  16.268   5.864 -0.1893  0.1439  0.4761
    1DIPC   D3A 9547  17.961  15.940   5.709 -0.0418 -0.0152  0.2807
    1DIPC   C4A 9548  17.985  15.633   5.953  0.1820 -0.1551 -0.0541
    1DIPC   C1B 9549  17.010  16.026   5.561 -0.2543 -0.3083  0.0242
    1DIPC   D2B 9550  17.037  16.304   5.238 -0.0712 -0.0879 -0.1423
    1DIPC   D3B 9551  17.418  16.181   4.969  0.2555 -0.0574  0.4625
    1DIPC   C4B 9552  17.904  16.134   5.162 -0.0994  0.1128  0.0164
    1DIPC   NC3 9553   0.384  28.504   5.772  0.2021 -0.0261 -0.1461
    1DIPC   PO4 9554   0.312  28.953   5.869  0.1269  0.0270 -0.0170
    1DIPC   GL1 9555   0.346  28.811   5.378 -0.1908 -0.2242  0.2140
    1DIPC   GL2 9556   0.125  28.687   5.368  0.0237  0.2577 -0.2593
    1DIPC   C1A 9557   0.486  28.844   4.968 -0.0503  0.1267  0.1371
    1DIPC   D2A 9558   0.545  29.070   4.529  0.1952 -0.1151 -0.1946
    1DIPC   D3A 9559   0.870  28.951   4.474  0.1424  0.1797  0.0102
    1DIPC   C4A 9560   0.953  28.746   4.827 -0.2830 -0.0494  0.0665
    1DIPC   C1B 9561   0.057  28.522   4.941  0.0163  0.3343 -0.0078
    1DIPC   D2B 9562  29.739  28.411   4.582 -0.0042 -0.2027 -0.0185
    1DIPC   D3B 9563   0.139  28.209   4.322 -0.0339  0.0756  0.2897
    1DIPC   C4B 9564   0.166  27.789   4.295  0.0552 -0.0522 -0.1686
    1DIPC   NC3 9565   3.375  10.009   6.465  0.1414 -0.0723  0.1974
    1DIPC   PO4 9566   3.588  10.313   6.233  0.0562  0.3898  0.0073
    1DIPC   GL1 9567   3.664  10.307   5.819  0.1042  0.1372 -0.1565
    1DIPC   GL2 9568   3.355  10.424   5.645  0.1424 -0.1993 -0.2529
    1DIPC   C1A 9569   3.753  10.269   5.383 -0.1386  0.0189  0.3006
    1DIPC   D2A 9570   3.555  10.369   4.990 -0.2252 -0.1350 -0.0445
    1DIPC   D3A 9571   3.414   9.868   4.916 -0.2139 -0.0237  0.2716
    1DIPC   C4A 9572   3.781   9.614   4.640  0.3358  0.1635  0.2172
    1DIPC   C1B 9573   3.422  10.744   5.346  0.0448  0.0616  0.0476
    1DIPC   D2B 9574   3.636  11.118   5.162  0.2424 -0.2683 -0.0810
    1DIPC   D3B 9575   3.630  11.260   4.778 -0.2453  0.2473  0.1220
    1DIPC   C4B 9576   3.283  11.258   4.543 -0.1259 -0.2441 -0.1104
    1DIPC   NC3 9577   1.093   5.689   6.854 -0.2592 -0.1153  0.2506
    1DIPC   PO4 9578   1.275   5.357   6.738 -0.1871  0.3517 -0.0690
    1DIPC   GL1 9579   1.100   5.182   6.490 -0.2169  0.0356  0.2514
    1DIPC   GL2 9580   0.792   5.058   6.327  0.2304 -0.1539  0.2274
    1DIPC   C1A 9581   1.099   5.376   6.072 -0.3837 -0.0528  0.1925
    1DIPC   D2A 9582   1.522   5.525   5.798  0.0950 -0.0891  0.0655
    1DIPC   D3A 9583   1.500   5.423   5.361 -0.4276  0.4255  0.1214
    1DIPC   C4A 9584   1.381   5.721   5.117  0.1529 -0.2668 -0.1715
    1DIPC   C1B 9585   0.847   4.753   5.987  0.6671  0.1694  0.1898
    1DIPC   D2B 9586   0.712   4.404   5.724 -0.1186 -0.3434 -0.0615
    1DIPC   D3B 9587   0.719   4.070   6.026  0.2974 -0.0732  0.1326
    1DIPC   C4B 9588   0.667   3.688   6.074  0.0872 -0.2086  0.3156
    1DIPC   NC3 9589  24.567   5.795   7.339  0.2299  0.1400  0.1010
    1DIPC   PO4 9590  24.695   5.334   7.401  0.2662 -0.1164 -0.1296
    1DIPC   GL1 9591  24.739   5.270   6.905 -0.4003  0.0424 -0.3865
    1DIPC   GL2 9592  24.703   5.567   6.804  0.0267  0.0389  0.3846
    1DIPC   C1A 9593  24.787   5.066   6.570  0.1389  0.0519  0.3168
    1DIPC   D2A 9594  24.794   4.583   6.446  0.0309 -0.0341  0.2966
    1DIPC   D3A 9595  24.882   4.799   6.147  0.3916 -0.2260  0.1920
    1DIPC   C4A 9596  25.147   5.196   6.026 -0.1074  0.1915  0.0593
    1DIPC   C1B 9597  24.510   5.449   6.419 -0.0105  0.1826 -0.2191
    1DIPC   D2B 9598  24.212   5.536   6.173  0.2945 -0.0873 -0.2521
    1DIPC   D3B 9599  23.930   5.251   6.302 -0.0590  0.0687 -0.1022
    1DIPC   C4B 9600  23.917   4.927   6.034 -0.0616  0.1559 -0.3133
    1DIPC   NC3 9601   1.443   3.916   6.913  0.0943  0.1916 -0.1279
    1DIPC   PO4 9602   1.796   3.864   6.567  0.0398  0.0023  0.1120
    1DIPC   GL1 9603   1.609   4.036   6.217 -0.0150  0.2339  0.1442
    1DIPC   GL2 9604   1.533   3.827   6.005 -0.0649  0.0611  0.0309
    1DIPC   C1A 9605   1.579   4.436   6.008 -0.1806  0.0780  0.1867
    1DIPC   D2A 9606   1.509   4.712   5.744  0.1616  0.0869  0.0515
    1DIPC   D3A 9607   1.994   4.636   5.594  0.0586 -0.2378 -0.1866
    1DIPC   C4A 9608   2.323   4.757   5.196  0.2437  0.1550 -0.2361
    1DIPC   C1B 9609   1.611   3.962   5.630  0.2189  0.2230  0.0741
    1DIPC   D2B 9610   1.435   3.926   5.224  0.0611 -0.1817 -0.2003
    1DIPC   D3B 9611   1.655   4.168   4.855 -0.0976  0.0399  0.1482
    1DIPC   C4B 9612   1.845   3.933   4.571 -0.0366  0.0136 -0.2873
    1DIPC   NC3 9613  16.731  29.548   7.790  0.3444 -0.1321  0.1696
    1DIPC   PO4 9614  17.227  29.765   7.796 -0.1425  0.1189 -0.1250
    1DIPC   GL1 9615  17.266   0.073   7.378  0.1650  0.0866 -0.1440
    1DIPC   GL2 9616  16.958   0.160   7.108 -0.0381  0.2947 -0.0181
    1DIPC   C1A 9617  17.524   0.133   7.007  0.1434  0.0281  0.0833
    1DIPC   D2A 9618  17.673  29.715   6.617  0.0617  0.0134  0.0126
    1DIPC   D3A 9619  17.691  29.363   6.858 -0.0051 -0.1100  0.0378
    1DIPC   C4A 9620  18.062  29.164   6.813 -0.1568 -0.0294 -0.1227
    1DIPC   C1B 9621  17.070   0.536   6.837  0.4626 -0.0782 -0.0090
    1DIPC   D2B 9622  17.179   0.817   6.546 -0.0228  0.2918  0.0420
    1DIPC   D3B 9623  16.766   0.806   6.514 -0.1961  0.1889  0.1791
    1DIPC   C4B 9624  16.606   0.395   6.662 -0.3478  0.3107  0.2393
    1DIPC   NC3 9625  21.462  19.387   5.945 -0.0986  0.3084  0.0792
    1DIPC   PO4 9626  21.732  19.761   6.167 -0.1620  0.1312 -0.1513
    1DIPC   GL1 9627  21.601  19.852   5.754  0.0210 -0.0350 -0.2658
    1DIPC   GL2 9628  21.817  20.007   5.639 -0.2013  0.1808  0.0635
    1DIPC   C1A 9629  21.233  19.920   5.519 -0.0871  0.1610  0.2094
    1DIPC   D2A 9630  20.822  20.154   5.573  0.2397  0.1277 -0.1412
    1DIPC   D3A 9631  21.271  20.379   5.647  0.1470  0.1356 -0.1218
    1DIPC   C4A 9632  21.430  20.443   5.300  0.0536 -0.1396  0.1231
    1DIPC   C1B 9633  21.653  19.960   5.282  0.0485  0.1257 -0.1152
    1DIPC   D2B 9634  21.526  19.860   4.928  0.1580  0.0073  0.3403
    1DIPC   D3B 9635  21.273  20.043   4.528  0.0394 -0.1106 -0.2163
    1DIPC   C4B 9636  21.470  20.022   4.128  0.1020  0.1112  0.1221
    1DIPC   NC3 9637  21.291   0.549   7.716 -0.0827 -0.2248  0.1142
    1DIPC   PO4 9638  20.825   0.448   7.658 -0.3033 -0.1425 -0.2240
    1DIPC   GL1 9639  20.566   0.691   7.411  0.2258 -0.0469  0.1140
    1DIPC   GL2 9640  20.475   0.979   7.450  0.1858 -0.2100 -0.1839
    1DIPC   C1A 9641  20.435   0.991   6.935  0.2103  0.2927  0.1335
    1DIPC   D2A 9642  20.075   1.069   6.534 -0.2438 -0.4381 -0.2486
    1DIPC   D3A 9643  19.969   0.797   6.264 -0.2406  0.0266  0.2600
    1DIPC   C4A 9644  20.209   0.780   5.946  0.0334  0.2917  0.2184
    1DIPC   C1B 9645  20.180   1.157   7.331  0.1051 -0.2572  0.1722
    1DIPC   D2B 9646  20.079   1.470   6.987  0.0943 -0.0701 -0.1230
    1DIPC   D3B 9647  20.313   1.498   6.688 -0.1056 -0.1041 -0.2006
    1DIPC   C4B 9648  20.396   1.316   6.215  0.1543  0.0932 -0.1183
    1DIPC   NC3 9649   7.350   7.756   6.624 -0.0873  0.1110 -0.2880
    1DIPC   PO4 9650   7.509   7.400   6.639 -0.1235  0.0957  0.0411
    1DIPC   GL1 9651   7.336   7.333   6.203  0.1675  0.0181 -0.0604
    1DIPC   GL2 9652   7.535   7.573   6.143 -0.2732 -0.1778  0.2731
    1DIPC   C1A 9653   7.240   7.092   5.854  0.0831 -0.0711 -0.0039
    1DIPC   D2A 9654   7.495   6.795   5.508  0.1838 -0.0812 -0.2534
    1DIPC   D3A 9655   7.364   6.376   5.381 -0.0321  0.0155 -0.0955
    1DIPC   C4A 9656   7.011   6.373   5.087 -0.1616 -0.3096  0.0196
    1DIPC   C1B 9657   7.753   7.906   5.879  0.1726  0.3390 -0.1915
    1DIPC   D2B 9658   7.950   8.268   5.865  0.1663 -0.2278  0.2596
    1DIPC   D3B 9659   8.196   8.081   5.696  0.1130  0.1852 -0.0733
    1DIPC   C4B 9660   8.147   8.139   5.308  0.2266  0.3074  0.1052
    1DIPC   NC3 9661  29.847  26.636   5.939  0.1101 -0.2004 -0.0969
    1DIPC   PO4 9662   0.082  27.107   5.992 -0.3144  0.0961 -0.1302
    1DIPC   GL1 9663  29.751  26.997   5.551  0.0030  0.2680  0.2495
    1DIPC   GL2 9664  29.579  26.692   5.546 -0.0340  0.3920  0.0306
    1DIPC   C1A 9665  29.547  27.093   5.126 -0.0111 -0.0030 -0.1336
    1DIPC   D2A 9666  29.343  27.235   4.781  0.2587  0.4075 -0.1234
    1DIPC   D3A 9667  29.595  27.610   4.763 -0.3414  0.1121  0.0430
    1DIPC   C4A 9668  29.352  28.058   4.628  0.0263  0.1377  0.0907
    1DIPC   C1B 9669  29.401  26.604   5.148  0.1887  0.5047  0.0001
    1DIPC   D2B 9670  29.578  26.790   4.714 -0.0158  0.1864  0.0530
    1DIPC   D3B 9671  29.501  26.316   4.725  0.0702  0.1825 -0.2568
    1DIPC   C4B 9672  29.143  26.073   4.954 -0.0078  0.1489  0.0277
    1DIPC   NC3 9673   6.470  14.009   6.004  0.3340 -0.3719 -0.4582
    1DIPC   PO4 9674   5.995  13.787   6.131  0.2546 -0.3401  0.0285
    1DIPC   GL1 9675   5.834  13.772   5.781  0.5185  0.0177 -0.1409
    1DIPC   GL2 9676   5.432  13.844   5.641  0.0020  0.1163  0.0771
    1DIPC   C1A 9677   5.790  13.690   5.316 -0.0855 -0.4384  0.1432
    1DIPC   D2A 9678   5.718  13.427   4.842 -0.1279 -0.2559 -0.0746
    1DIPC   D3A 9679   5.496  13.309   4.488 -0.0224  0.0630 -0.1752
    1DIPC   C4A 9680   5.173  13.536   4.287  0.0255  0.1091  0.2337
    1DIPC   C1B 9681   5.286  13.749   5.277 -0.1926  0.0331 -0.0562
    1DIPC   D2B 9682   5.283  13.732   4.877  0.2098  0.0033 -0.0321
    1DIPC   D3B 9683   4.907  13.784   4.789  0.1351 -0.2027  0.0757
    1DIPC   C4B 9684   4.627  13.523   4.483  0.1590  0.1211  0.0768
    1DIPC   NC3 9685  26.388  22.781   6.872 -0.4202 -0.1908  0.2318
    1DIPC   PO4 9686  26.855  22.889   6.708 -0.3705 -0.3117  0.1262
    1DIPC   GL1 9687  26.986  22.881   6.264  0.1299 -0.1926 -0.1365
    1DIPC   GL2 9688  26.769  22.657   6.107 -0.1681 -0.0827  0.2654
    1DIPC   C1A 9689  27.134  22.943   5.967 -0.2419 -0.1087  0.2863
    1DIPC   D2A 9690  27.282  22.943   5.522 -0.0437 -0.1066 -0.0929
    1DIPC   D3A 9691  27.724  22.843   5.620  0.0393  0.2341 -0.0791
    1DIPC   C4A 9692  27.991  23.015   5.868 -0.0745  0.1807  0.1987
    1DIPC   C1B 9693  26.707  22.804   5.652  0.3737 -0.1451  0.1643
    1DIPC   D2B 9694  26.878  22.597   5.282 -0.3806  0.1945 -0.0941
    1DIPC   D3B 9695  27.106  22.907   5.014  0.0371 -0.0260 -0.0886
    1DIPC   C4B 9696  26.982  22.918   4.572 -0.2033 -0.2230 -0.0041
    1DIPC   NC3 9697   8.157  26.190   5.919 -0.0638 -0.1632  0.2817
    1DIPC   PO4 9698   8.106  25.775   5.729  0.1685  0.4270 -0.0879
    1DIPC   GL1 9699   8.046  25.458   5.339  0.0715 -0.1814  0.1222
    1DIPC   GL2 9700   7.971  25.761   5.204 -0.3141  0.1945  0.2308
    1DIPC   C1A 9701   8.331  25.252   5.048 -0.2345  0.1768 -0.0041
    1DIPC   D2A 9702   8.665  25.266   4.789  0.0410  0.1247  0.1254
    1DIPC   D3A 9703   8.748  25.128   4.428  0.0852  0.0246  0.0003
    1DIPC   C4A 9704   8.828  25.391   4.084 -0.1301  0.0696  0.0717
    1DIPC   C1B 9705   8.124  26.130   4.844  0.0048  0.1991  0.0057
    1DIPC   D2B 9706   8.301  26.227   4.439  0.0374  0.2890  0.2008
    1DIPC   D3B 9707   7.949  26.201   4.304  0.3302 -0.2171 -0.0215
    1DIPC   C4B 9708   7.798  26.538   4.041  0.1392 -0.1953  0.2977
    1DIPC   NC3 9709   2.514   6.532   6.470  0.0178  0.0677 -0.2471
    1DIPC   PO4 9710   2.127   6.574   6.442 -0.1767  0.1360 -0.1672
    1DIPC   GL1 9711   2.274   6.375   6.062  0.1485  0.1216  0.1783
    1DIPC   GL2 9712   2.038   6.222   5.940 -0.0825 -0.4164  0.1889
    1DIPC   C1A 9713   2.489   6.613   5.731  0.1151 -0.1714  0.2746
    1DIPC   D2A 9714   2.633   6.891   5.486 -0.2003  0.1520  0.1195
    1DIPC   D3A 9715   2.450   7.338   5.470 -0.1438 -0.0647  0.2041
    1DIPC   C4A 9716   2.018   7.408   5.521 -0.1233 -0.0681 -0.3127
    1DIPC   C1B 9717   2.220   6.084   5.585  0.0005  0.1586 -0.1043
    1DIPC   D2B 9718   2.463   5.753   5.580 -0.0576 -0.2735 -0.2832
    1DIPC   D3B 9719   2.363   5.563   5.219  0.1632 -0.1253 -0.0511
    1DIPC   C4B 9720   2.729   5.153   5.024  0.0845 -0.0680  0.0492
    1DIPC   NC3 9721   6.884   9.499   7.048 -0.1198  0.1070 -0.0542
    1DIPC   PO4 9722   6.755   9.834   6.752 -0.0031  0.0905  0.4527
    1DIPC   GL1 9723   6.799   9.815   6.268  0.2387 -0.4368  0.1490
    1DIPC   GL2 9724   7.075   9.652   6.029 -0.0229  0.2571 -0.2010
    1DIPC   C1A 9725   6.684   9.810   5.849  0.1847 -0.1232 -0.1929
    1DIPC   D2A 9726   6.680  10.088   5.508 -0.1384  0.1441  0.1077
    1DIPC   D3A 9727   6.438  10.475   5.581 -0.1815  0.2248  0.2105
    1DIPC   C4A 9728   6.256  10.640   5.830 -0.3945 -0.1089 -0.0149
    1DIPC   C1B 9729   7.156   9.656   5.631  0.0858  0.2389 -0.1144
    1DIPC   D2B 9730   7.253   9.655   5.114 -0.2942  0.1394  0.3425
    1DIPC   D3B 9731   6.882   9.903   5.083  0.2207  0.2420  0.0298
    1DIPC   C4B 9732   6.817  10.306   4.947 -0.0108  0.0548  0.0811
    1DIPC   NC3 9733   1.830  19.809   6.323  0.0370 -0.0800  0.0232
    1DIPC   PO4 9734   1.686  19.308   6.296  0.1049 -0.0610 -0.0115
    1DIPC   GL1 9735   1.925  19.361   6.027 -0.0739  0.2632  0.4214
    1DIPC   GL2 9736   2.110  19.624   5.833  0.4734  0.0326 -0.3270
    1DIPC   C1A 9737   2.068  19.075   5.735  0.0019 -0.0826 -0.3166
    1DIPC   D2A 9738   1.815  18.616   5.792 -0.0553 -0.0818 -0.2115
    1DIPC   D3A 9739   2.022  18.301   5.691 -0.2415 -0.1538 -0.0932
    1DIPC   C4A 9740   2.190  18.163   5.386  0.2820 -0.2704  0.1296
    1DIPC   C1B 9741   2.063  19.553   5.458 -0.2161 -0.0745 -0.0539
    1DIPC   D2B 9742   1.876  19.677   5.149 -0.2270 -0.2182 -0.1063
    1DIPC   D3B 9743   2.085  19.766   4.649 -0.2176  0.0982 -0.0448
    1DIPC   C4B 9744   2.491  19.650   4.601 -0.0211 -0.1625 -0.2497
    1DIPC   NC3 9745   6.819  19.150   6.222  0.0154 -0.4856 -0.1203
    1DIPC   PO4 9746   7.206  19.269   5.983  0.2953 -0.0919  0.1014
    1DIPC   GL1 9747   7.228  19.247   5.575 -0.1410  0.0546  0.1325
    1DIPC   GL2 9748   7.482  19.126   5.443  0.2989 -0.1292 -0.0970
    1DIPC   C1A 9749   6.984  19.438   5.259  0.2087  0.0477 -0.0942
    1DIPC   D2A 9750   6.705  19.457   5.005  0.1135 -0.0921  0.3650
    1DIPC   D3A 9751   6.481  19.211   4.657  0.0989 -0.2628  0.2449
    1DIPC   C4A 9752   6.220  19.361   4.275 -0.1395 -0.1061  0.1643
    1DIPC   C1B 9753   7.299  19.021   5.027 -0.1125 -0.0550 -0.0571
    1DIPC   D2B 9754   6.977  19.187   4.665  0.1600  0.1244 -0.2102
    1DIPC   D3B 9755   6.792  18.824   4.521 -0.1959  0.0296 -0.0850
    1DIPC   C4B 9756   6.882  18.445   4.375 -0.0555 -0.0862 -0.0380
    1DIPC   NC3 9757  15.108  25.762   5.785  0.0591 -0.0988  0.2275
    1DIPC   PO4 9758  15.531  25.755   5.907  0.0975  0.1807  0.0708
    1DIPC   GL1 9759  15.688  25.845   5.469  0.0131  0.3226 -0.1905
    1DIPC   GL2 9760  15.664  25.558   5.211 -0.1090  0.4008  0.0684
    1DIPC   C1A 9761  15.694  26.036   5.110  0.1836  0.0569 -0.0736
    1DIPC   D2A 9762  15.386  26.223   4.870 -0.2147 -0.3511 -0.2139
    1DIPC   D3A 9763  15.295  26.106   4.433 -0.0067 -0.1351 -0.1604
    1DIPC   C4A 9764  15.624  25.795   4.205 -0.1181 -0.3150  0.2692
    1DIPC   C1B 9765  15.640  25.665   4.812  0.1555  0.1187 -0.0841
    1DIPC   D2B 9766  15.790  25.446   4.509 -0.1958  0.1477  0.0461
    1DIPC   D3B 9767  16.045  25.711   4.502 -0.1108 -0.2255 -0.1005
    1DIPC   C4B 9768  15.797  26.124   4.552 -0.1032 -0.1537  0.0058
    1DIPC   NC3 9769  22.101   1.490   7.771  0.1462 -0.2043  0.0218
    1DIPC   PO4 9770  22.449   1.461   7.559  0.0716  0.0631  0.0246
    1DIPC   GL1 9771  22.402   1.277   7.259 -0.4195  0.0496 -0.1540
    1DIPC   GL2 9772  22.415   0.999   7.105 -0.5182  0.0182 -0.1713
    1DIPC   C1A 9773  22.137   1.352   6.879 -0.0216 -0.1167  0.0226
    1DIPC   D2A 9774  22.053   1.537   6.444 -0.1823  0.0539  0.3446
    1DIPC   D3A 9775  21.917   1.830   6.125  0.4379  0.1056  0.2202
    1DIPC   C4A 9776  22.025   1.843   5.777  0.0367 -0.2958 -0.0319
    1DIPC   C1B 9777  22.568   0.837   6.731  0.2421  0.1043 -0.0800
    1DIPC   D2B 9778  22.664   0.684   6.319 -0.2034 -0.2450 -0.1712
    1DIPC   D3B 9779  22.928   0.416   6.212 -0.3088 -0.0744 -0.1917
    1DIPC   C4B 9780  23.316   0.463   6.040 -0.2433  0.1025 -0.3473
    1DIPC   NC3 9781  12.556  19.675   5.879  0.2293 -0.3435  0.1234
    1DIPC   PO4 9782  12.070  19.814   5.899 -0.1075  0.1341 -0.0350
    1DIPC   GL1 9783  11.906  19.967   5.601  0.0511  0.0752  0.0877
    1DIPC   GL2 9784  12.028  20.088   5.418  0.3480 -0.0435  0.1062
    1DIPC   C1A 9785  11.699  19.733   5.245 -0.0725 -0.0773 -0.0743
    1DIPC   D2A 9786  11.439  19.381   5.244  0.1299  0.1298  0.5621
    1DIPC   D3A 9787  11.217  19.326   4.906 -0.3288  0.1016 -0.2257
    1DIPC   C4A 9788  10.840  19.427   4.831 -0.0450  0.1473  0.2453
    1DIPC   C1B 9789  12.147  20.047   4.991  0.2291 -0.3920 -0.0193
    1DIPC   D2B 9790  12.252  20.489   4.916 -0.0729 -0.2746 -0.1467
    1DIPC   D3B 9791  12.533  20.400   4.533 -0.0653 -0.0192  0.0614
    1DIPC   C4B 9792  13.049  20.293   4.615  0.0515 -0.0655 -0.2391
    1DIPC   NC3 9793  15.268  22.042   5.288 -0.3862  0.1764  0.2028
    1DIPC   PO4 9794  15.324  22.401   4.979 -0.1542 -0.3273 -0.1068
    1DIPC   GL1 9795  15.481  22.416   4.667  0.1607  0.1883  0.0751
    1DIPC   GL2 9796  15.442  22.719   4.541  0.2898 -0.1048  0.2674
    1DIPC   C1A 9797  15.755  22.276   4.312 -0.1180 -0.0483  0.1279
    1DIPC   D2A 9798  15.777  22.397   3.900  0.0062 -0.0809 -0.0938
    1DIPC   D3A 9799  15.650  22.182   3.513 -0.1415  0.3868  0.2026
    1DIPC   C4A 9800  15.425  22.541   3.314  0.1188  0.0336 -0.3211
    1DIPC   C1B 9801  15.308  22.444   4.191 -0.0315  0.2180 -0.3322
    1DIPC   D2B 9802  15.268  22.382   3.785  0.1405 -0.1431 -0.0398
    1DIPC   D3B 9803  15.113  22.114   3.369 -0.2556 -0.3648  0.0954
    1DIPC   C4B 9804  15.306  22.273   2.964  0.0902 -0.0974 -0.3108
    1DIPC   NC3 9805  14.668   1.326   7.358  0.0954  0.1190  0.3165
    1DIPC   PO4 9806  15.051   1.407   7.554  0.1457 -0.0053  0.0669
    1DIPC   GL1 9807  15.056   1.482   7.079  0.0639  0.3304  0.3279
    1DIPC   GL2 9808  15.129   1.245   6.914  0.1225  0.0933 -0.1924
    1DIPC   C1A 9809  15.082   1.729   6.851 -0.0068  0.1849  0.0181
    1DIPC   D2A 9810  15.397   2.008   6.863 -0.1387 -0.0462  0.0405
    1DIPC   D3A 9811  15.804   1.860   6.640  0.0207 -0.3110  0.0978
    1DIPC   C4A 9812  16.203   2.063   6.830  0.0776 -0.0245 -0.1571
    1DIPC   C1B 9813  15.137   1.292   6.484  0.3400 -0.3731 -0.2913
    1DIPC   D2B 9814  15.021   1.344   6.061  0.1781 -0.3410 -0.3306
    1DIPC   D3B 9815  15.149   1.612   5.973  0.2945 -0.1057  0.0652
    1DIPC   C4B 9816  15.307   2.111   5.900 -0.0485  0.0199 -0.1073
    1DIPC   NC3 9817  19.019  23.315   6.231  0.1492 -0.3805  0.1924
    1DIPC   PO4 9818  18.955  23.639   5.905  0.0588  0.1609  0.2369
    1DIPC   GL1 9819  18.966  23.627   5.445 -0.0529  0.1726  0.1802
    1DIPC   GL2 9820  18.736  23.665   5.250 -0.4230  0.1709 -0.0841
    1DIPC   C1A 9821  19.353  23.748   5.089  0.0400 -0.0143 -0.1603
    1DIPC   D2A 9822  19.592  24.041   4.812  0.2169  0.0819 -0.5040
    1DIPC   D3A 9823  19.238  24.105   4.635 -0.2439 -0.2576  0.0935
    1DIPC   C4A 9824  19.076  24.355   4.281 -0.1769 -0.1631  0.1106
    1DIPC   C1B 9825  18.626  23.751   4.785  0.1531 -0.0258 -0.1050
    1DIPC   D2B 9826  18.702  23.807   4.422  0.1895 -0.1818 -0.1320
    1DIPC   D3B 9827  19.049  23.759   4.197 -0.0019 -0.1013 -0.1577
    1DIPC   C4B 9828  19.162  23.407   4.266  0.1732  0.1486 -0.2289
    1DIPC   NC3 9829   8.115   2.167   6.479  0.2385 -0.0170 -0.0716
    1DIPC   PO4 9830   7.736   2.430   6.548 -0.0235  0.2527 -0.1717
    1DIPC   GL1 9831   7.797   2.284   6.134  0.0612 -0.1821 -0.1250
    1DIPC   GL2 9832   7.712   1.896   5.938 -0.3084  0.1763 -0.0140
    1DIPC   C1A 9833   7.516   2.372   5.750  0.1939 -0.1761 -0.1471
    1DIPC   D2A 9834   7.506   2.303   5.311  0.1407  0.1145  0.0672
    1DIPC   D3A 9835   7.463   2.662   4.997  0.1693 -0.0827  0.0722
    1DIPC   C4A 9836   7.308   2.566   4.577 -0.1349  0.3330 -0.0142
    1DIPC   C1B 9837   7.442   1.881   5.625  0.2455  0.1542 -0.4302
    1DIPC   D2B 9838   7.345   1.855   5.192 -0.1740  0.0745 -0.1357
    1DIPC   D3B 9839   7.076   2.190   5.018 -0.4467 -0.0338  0.0574
    1DIPC   C4B 9840   6.866   2.645   5.050 -0.0547 -0.2712  0.1227
    1DIPC   NC3 9841  13.396  19.844   6.032 -0.3391  0.2295 -0.3394
    1DIPC   PO4 9842  12.892  19.991   6.051  0.1447 -0.0147  0.1225
    1DIPC   GL1 9843  12.836  19.978   5.574 -0.0447  0.1420 -0.1136
    1DIPC   GL2 9844  12.784  19.807   5.468  0.1697  0.1617  0.0448
    1DIPC   C1A 9845  13.085  19.869   5.138 -0.2127  0.0558 -0.2593
    1DIPC   D2A 9846  13.117  19.739   4.768  0.0676  0.3769  0.0750
    1DIPC   D3A 9847  13.167  19.573   4.395 -0.0160 -0.0061 -0.1425
    1DIPC   C4A 9848  13.106  19.832   4.091 -0.1449 -0.0217 -0.0428
    1DIPC   C1B 9849  12.637  19.610   5.103  0.0866  0.0647 -0.1626
    1DIPC   D2B 9850  12.307  19.437   4.941 -0.2705 -0.1788 -0.1084
    1DIPC   D3B 9851  12.264  19.454   4.543  0.1532 -0.2110 -0.1742
    1DIPC   C4B 9852  11.892  19.406   4.239 -0.1944 -0.1168 -0.2153
    1DIPC   NC3 9853   4.053  21.189   6.166  0.1325  0.0313  0.1831
    1DIPC   PO4 9854   4.381  21.433   6.131 -0.0822 -0.1404 -0.0510
    1DIPC   GL1 9855   4.362  21.283   5.695  0.1506 -0.1483 -0.1211
    1DIPC   GL2 9856   4.477  21.018   5.610  0.1071 -0.0932  0.2940
    1DIPC   C1A 9857   4.141  21.485   5.282  0.0641  0.1893 -0.2440
    1DIPC   D2A 9858   4.120  21.710   4.904  0.0204 -0.0833  0.0069
    1DIPC   D3A 9859   4.448  21.475   4.716  0.0592  0.4137 -0.2410
    1DIPC   C4A 9860   4.737  21.700   4.418  0.3087  0.1628 -0.0701
    1DIPC   C1B 9861   4.475  21.066   5.195  0.1424 -0.0751  0.3604
    1DIPC   D2B 9862   4.527  20.953   4.789 -0.0200 -0.3318 -0.0927
    1DIPC   D3B 9863   4.298  21.067   4.389 -0.1650  0.3267 -0.1051
    1DIPC   C4B 9864   4.455  20.839   4.103 -0.1550 -0.2555 -0.0902
    1DIPC   NC3 9865   6.133  29.097   6.056 -0.3387 -0.3449 -0.2902
    1DIPC   PO4 9866   6.378  29.174   6.371  0.0200  0.0962  0.2849
    1DIPC   GL1 9867   6.526  29.480   5.994  0.1394 -0.1625  0.2805
    1DIPC   GL2 9868   6.480  29.401   5.665 -0.1934  0.0356  0.2212
    1DIPC   C1A 9869   6.928  29.657   5.929  0.1628 -0.1381 -0.3872
    1DIPC   D2A 9870   7.324  29.743   5.732  0.1892  0.0227  0.2099
    1DIPC   D3A 9871   7.374   0.010   5.262  0.0946  0.0553 -0.1173
    1DIPC   C4A 9872   7.761  29.848   5.129  0.0822  0.0996  0.0164
    1DIPC   C1B 9873   6.184  29.355   5.364 -0.3618 -0.0115  0.1163
    1DIPC   D2B 9874   5.894  29.396   5.056  0.0238 -0.3110 -0.1491
    1DIPC   D3B 9875   5.777  29.114   4.677  0.4200  0.1281 -0.0017
    1DIPC   C4B 9876   5.984  29.274   4.291 -0.1807 -0.1380 -0.1000
    1DIPC   NC3 9877   7.389   1.016   6.818 -0.0471  0.1987 -0.0714
    1DIPC   PO4 9878   7.136   0.846   7.116  0.1384  0.3887 -0.3702
    1DIPC   GL1 9879   6.915   0.741   6.761  0.2103  0.0113 -0.0288
    1DIPC   GL2 9880   7.006   0.987   6.531 -0.0545 -0.1529 -0.3074
    1DIPC   C1A 9881   6.757   0.585   6.336  0.1220 -0.1338 -0.1234
    1DIPC   D2A 9882   6.720   0.588   5.942 -0.0691 -0.0040  0.1037
    1DIPC   D3A 9883   7.016   0.320   5.925  0.0251  0.1613 -0.0750
    1DIPC   C4A 9884   7.358   0.232   6.149  0.2642  0.1384 -0.1332
    1DIPC   C1B 9885   6.853   1.086   6.082 -0.1030 -0.1851  0.2067
    1DIPC   D2B 9886   6.589   1.235   5.671 -0.2245  0.0347 -0.0161
    1DIPC   D3B 9887   6.624   0.880   5.551  0.5165  0.0676 -0.2147
    1DIPC   C4B 9888   6.898   0.791   5.174 -0.2610 -0.4499 -0.3156
    1DIPC   NC3 9889  25.949  20.907   7.039 -0.2163  0.0061 -0.0242
    1DIPC   PO4 9890  26.202  21.278   6.720  0.0846  0.2368  0.0979
    1DIPC   GL1 9891  26.009  21.034   6.283  0.4147 -0.0333  0.3025
    1DIPC   GL2 9892  26.292  21.171   6.146  0.0762  0.2995 -0.2274
    1DIPC   C1A 9893  25.945  20.869   5.787 -0.1184  0.0123  0.1199
    1DIPC   D2A 9894  26.035  20.984   5.336  0.2446  0.0075 -0.0154
    1DIPC   D3A 9895  25.821  21.227   5.127  0.2169  0.0630  0.0753
    1DIPC   C4A 9896  25.922  21.337   4.703  0.3669 -0.0314 -0.0742
    1DIPC   C1B 9897  26.426  20.961   5.714 -0.0081 -0.0569  0.1999
    1DIPC   D2B 9898  26.464  20.687   5.385  0.0721  0.0241  0.1709
    1DIPC   D3B 9899  26.741  20.322   5.446 -0.1824  0.2740 -0.0114
    1DIPC   C4B 9900  26.504  19.976   5.694  0.0597  0.0483  0.0845
    1DIPC   NC3 9901  20.634   3.838   8.425 -0.1453  0.2683  0.5574
    1DIPC   PO4 9902  20.670   3.668   8.008  0.4452  0.1858  0.2224
    1DIPC   GL1 9903  20.860   3.689   7.559  0.0183 -0.2929  0.1643
    1DIPC   GL2 9904  21.170   3.813   7.365  0.1165 -0.3472  0.0002
    1DIPC   C1A 9905  20.763   3.876   7.111 -0.1303  0.1518 -0.1152
    1DIPC   D2A 9906  20.437   3.826   6.729 -0.0531 -0.2503 -0.1009
    1DIPC   D3A 9907  20.888   3.890   6.583 -0.1356  0.0745  0.0098
    1DIPC   C4A 9908  21.119   4.294   6.332  0.0942  0.0311  0.1065
    1DIPC   C1B 9909  21.215   4.057   6.996  0.1490 -0.4210 -0.3239
    1DIPC   D2B 9910  21.005   4.443   6.787  0.0713  0.1842 -0.0223
    1DIPC   D3B 9911  20.613   4.373   6.495 -0.0225  0.1004  0.2281
    1DIPC   C4B 9912  20.295   4.601   6.343 -0.0174 -0.2731  0.0333
    1DIPC   NC3 9913  29.514  16.380   6.633 -0.0940  0.1407  0.0732
    1DIPC   PO4 9914  29.565  15.945   6.356  0.1593  0.3701 -0.0898
    1DIPC   GL1 9915  29.621  15.688   5.966  0.2760  0.1021  0.1384
    1DIPC   GL2 9916   0.037  15.422   5.945 -0.0387 -0.0684 -0.2356
    1DIPC   C1A 9917  29.684  15.825   5.486 -0.3625 -0.2118  0.1735
    1DIPC   D2A 9918   0.216  15.634   5.292  0.2794 -0.1262 -0.2738
    1DIPC   D3A 9919   0.376  15.141   5.088  0.0356  0.0382 -0.1057
    1DIPC   C4A 9920   0.340  14.933   4.666  0.0609  0.1915  0.0049
    1DIPC   C1B 9921   0.450  15.521   5.730  0.1242  0.0396  0.2644
    1DIPC   D2B 9922   0.688  15.539   5.384 -0.7083  0.2797  0.1220
    1DIPC   D3B 9923   1.010  15.345   5.121  0.0099  0.1449 -0.1211
    1DIPC   C4B 9924   0.902  15.062   4.744  0.1996  0.3632 -0.1317
    1DIPC   NC3 9925  11.715  14.270   6.073  0.3996 -0.0726  0.0159
    1DIPC   PO4 9926  11.981  13.827   5.910 -0.2692  0.0898  0.2281
    1DIPC   GL1 9927  11.688  13.741   5.575 -0.0677  0.2049  0.1996
    1DIPC   GL2 9928  11.938  13.920   5.435 -0.1334  0.1039  0.3546
    1DIPC   C1A 9929  11.504  13.896   5.172 -0.1424  0.0544 -0.4591
    1DIPC   D2A 9930  11.465  13.678   4.698  0.1826  0.0664 -0.0609
    1DIPC   D3A 9931  11.441  13.344   4.942  0.0730  0.2684 -0.2647
    1DIPC   C4A 9932  11.661  13.382   5.204 -0.3535  0.1371  0.1675
    1DIPC   C1B 9933  11.950  13.735   4.944  0.0138  0.1770  0.1911
    1DIPC   D2B 9934  12.189  13.733   4.557 -0.0045  0.1467 -0.4843
    1DIPC   D3B 9935  12.212  14.123   4.347 -0.0793  0.2468  0.2107
    1DIPC   C4B 9936  12.163  14.106   3.866  0.1674 -0.1073 -0.0604
    1DIPC   NC3 9937  12.234   6.565   7.979 -0.0135 -0.1047  0.1574
    1DIPC   PO4 9938  12.288   6.336   7.700 -0.2543  0.0944  0.1145
    1DIPC   GL1 9939  12.045   6.370   7.287 -0.0910  0.0647 -0.1509
    1DIPC   GL2 9940  11.693   6.216   7.144 -0.2058 -0.2336 -0.1388
    1DIPC   C1A 9941  12.177   6.341   6.935 -0.2916 -0.0121 -0.1087
    1DIPC   D2A 9942  12.359   6.014   6.744  0.1919 -0.1907 -0.1480
    1DIPC   D3A 9943  12.543   5.877   6.337 -0.0853  0.2788  0.0609
    1DIPC   C4A 9944  12.975   5.688   6.250 -0.1111  0.1164 -0.0208
    1DIPC   C1B 9945  11.702   6.398   6.783  0.3967 -0.1292 -0.4294
    1DIPC   D2B 9946  11.620   6.785   6.615  0.1095 -0.2524 -0.2100
    1DIPC   D3B 9947  11.187   6.545   6.547 -0.0652 -0.2487 -0.0041
    1DIPC   C4B 9948  10.934   6.631   6.171  0.1723  0.1519  0.0977
    1DIPC   NC3 9949   7.236  22.817   5.954  0.2156  0.1394 -0.1606
    1DIPC   PO4 9950   7.522  22.471   5.786 -0.0962  0.1687  0.1817
    1DIPC   GL1 9951   7.661  22.561   5.386 -0.1232 -0.2096 -0.0953
    1DIPC   GL2 9952   7.598  22.237   5.295 -0.1966  0.0153 -0.2893
    1DIPC   C1A 9953   8.010  22.770   5.058  0.0896 -0.3129  0.1555
    1DIPC   D2A 9954   8.129  22.947   4.657  0.0475  0.1534  0.1415
    1DIPC   D3A 9955   8.093  23.243   4.245 -0.1950 -0.0607 -0.0166
    1DIPC   C4A 9956   8.006  23.672   4.197  0.2529  0.0209  0.1086
    1DIPC   C1B 9957   7.573  22.461   4.918  0.1141  0.0139  0.0679
    1DIPC   D2B 9958   7.787  22.310   4.473  0.3606 -0.1219 -0.0223
    1DIPC   D3B 9959   7.597  22.498   4.122 -0.3612 -0.2408  0.2837
    1DIPC   C4B 9960   7.385  22.497   3.832 -0.1655 -0.0603  0.0313
    1DIPC   NC3 9961  17.692   3.503   8.888  0.1211  0.3030 -0.2279
    1DIPC   PO4 9962  17.678   3.826   8.566 -0.1320 -0.1120 -0.2265
    1DIPC   GL1 9963  17.756   3.747   8.137  0.1425  0.0010 -0.1308
    1DIPC   GL2 9964  17.504   3.503   7.940 -0.0748 -0.1537 -0.0659
    1DIPC   C1A 9965  17.958   3.600   7.725  0.0240 -0.0310 -0.1958
    1DIPC   D2A 9966  17.908   3.499   7.369 -0.1261 -0.3652  0.2362
    1DIPC   D3A 9967  17.586   3.353   7.078  0.0925 -0.2027  0.2310
    1DIPC   C4A 9968  17.362   3.046   7.022  0.2465 -0.1200  0.2040
    1DIPC   C1B 9969  17.292   3.370   7.643  0.0231  0.2549 -0.0842
    1DIPC   D2B 9970  17.107   3.046   7.748 -0.0289  0.0148  0.0854
    1DIPC   D3B 9971  16.995   2.874   7.374  0.1457  0.0788 -0.0695
    1DIPC   C4B 9972  16.631   2.527   7.271 -0.1536 -0.2511 -0.0757
    1DIPC   NC3 9973  14.331  23.638   5.093  0.2800  0.2107 -0.1394
    1DIPC   PO4 9974  14.219  23.205   5.145  0.0299  0.0123  0.0263
    1DIPC   GL1 9975  14.101  23.227   4.829 -0.1406  0.1780  0.2645
    1DIPC   GL2 9976  13.851  23.414   4.654 -0.2763 -0.0905 -0.3222
    1DIPC   C1A 9977  13.985  22.919   4.427  0.1587  0.0042 -0.2596
    1DIPC   D2A 9978  14.304  22.748   4.031  0.1372 -0.0944 -0.4850
    1DIPC   D3A 9979  13.996  23.011   3.897 -0.0619  0.1723 -0.0711
    1DIPC   C4A 9980  13.878  22.733   3.560  0.1076  0.1119  0.3978
    1DIPC   C1B 9981  13.633  23.753   4.393  0.0292  0.0834 -0.2182
    1DIPC   D2B 9982  13.552  23.739   3.965 -0.0837  0.2520 -0.1045
    1DIPC   D3B 9983  13.151  23.735   4.190 -0.2705 -0.2201 -0.2383
    1DIPC   C4B 9984  13.121  23.896   4.554 -0.0633 -0.2226  0.1345
    1DIPC   NC3 9985   0.348  12.056   6.784  0.3062  0.0226 -0.1503
    1DIPC   PO4 9986   0.167  12.372   6.513  0.4060  0.1987 -0.0340
    1DIPC   GL1 9987   0.253  12.567   6.134  0.3233  0.0276 -0.1935
    1DIPC   GL2 9988   0.570  12.395   6.052 -0.0468  0.0588 -0.3151
    1DIPC   C1A 9989   0.018  12.779   5.836 -0.0260  0.0386 -0.0428
    1DIPC   D2A 9990  29.635  12.713   5.526  0.1318 -0.0328  0.2058
    1DIPC   D3A 9991  29.237  12.887   5.649  0.0171  0.1607  0.2021
    1DIPC   C4A 9992  28.973  12.688   5.376  0.1185  0.4051  0.2798
    1DIPC   C1B 9993   0.327  12.355   5.676 -0.3991 -0.0519  0.0314
    1DIPC   D2B 9994   0.174  12.339   5.323  0.0432 -0.3316  0.0508
    1DIPC   D3B 9995   0.324  12.483   4.959  0.1710 -0.1806  0.1376
    1DIPC   C4B 9996   0.381  12.860   4.777 -0.3286 -0.0657  0.0815
    1DIPC   NC3 9997   1.218  21.135   6.675  0.3901  0.2850  0.0537
    1DIPC   PO4 9998   1.095  20.890   6.229  0.4139  0.1234 -0.0595
    1DIPC   GL1 9999   1.090  20.799   5.862  0.1275  0.0081 -0.0501
    1DIPC   GL210000   0.751  20.791   5.868 -0.0846 -0.1455  0.2487
    1DIPC   C1A10001   1.292  20.772   5.516 -0.0176  0.0191  0.0861
    1DIPC   D2A10002   1.341  21.014   5.199 -0.1012  0.1049  0.0962
    1DIPC   D3A10003   1.554  21.373   5.224  0.1298  0.0574 -0.0165
    1DIPC   C4A10004   1.842  21.216   4.895  0.0537 -0.0056  0.0168
    1DIPC   C1B10005   0.808  20.959   5.417  0.3879 -0.1720 -0.1059
    1DIPC   D2B10006   0.728  21.105   4.958 -0.0298  0.1108  0.0753
    1DIPC   D3B10007   1.023  21.327   4.684 -0.4704 -0.1208 -0.1059
    1DIPC   C4B10008   1.372  21.097   4.738  0.0568 -0.3257  0.0194
    1DIPC   NC310009   0.447  23.250   6.233 -0.0902 -0.4664 -0.0610
    1DIPC   PO410010   0.145  22.893   6.276  0.1144  0.0597  0.1510
    1DIPC   GL110011   0.063  22.879   5.846 -0.0030  0.0846  0.0965
    1DIPC   GL210012  29.713  23.061   5.875  0.1701  0.1869  0.0528
    1DIPC   C1A10013   0.087  22.685   5.459  0.3262  0.1007 -0.3397
    1DIPC   D2A10014   0.395  22.454   5.246  0.2643 -0.2105 -0.0637
    1DIPC   D3A10015   0.097  22.406   4.863  0.1751 -0.2294  0.3099
    1DIPC   C4A10016  29.646  22.240   4.714 -0.0498 -0.1655  0.0322
    1DIPC   C1B10017  29.636  23.113   5.472 -0.0243 -0.1940 -0.2505
    1DIPC   D2B10018  29.566  23.402   5.096  0.1427 -0.1904 -0.1874
    1DIPC   D3B10019  29.411  23.665   5.505 -0.0439  0.0554  0.1783
    1DIPC   C4B10020  29.196  23.410   5.707  0.2714  0.0493  0.3075
    1DIPC   NC310021  25.638  28.019   6.806  0.2931 -0.3183  0.3223
    1DIPC   PO410022  26.058  28.048   6.709 -0.2685  0.1142 -0.0841
    1DIPC   GL110023  25.832  28.379   6.460  0.0830  0.3652 -0.3661
    1DIPC   GL210024  26.017  28.549   6.203  0.2961 -0.3630 -0.2458
    1DIPC   C1A10025  25.597  28.234   6.092 -0.2338  0.1549  0.2134
    1DIPC   D2A10026  25.283  28.180   5.770 -0.1831  0.0097  0.2904
    1DIPC   D3A10027  25.200  28.516   5.314 -0.2114  0.1359 -0.0312
    1DIPC   C4A10028  25.524  28.631   4.949  0.2727  0.1099  0.1414
    1DIPC   C1B10029  25.757  28.626   5.842  0.0017 -0.1435  0.4531
    1DIPC   D2B10030  25.664  28.645   5.428  0.0874  0.0062  0.1749
    1DIPC   D3B10031  25.714  28.161   5.494 -0.1000  0.1727  0.2628
    1DIPC   C4B10032  25.536  27.763   5.795 -0.1726 -0.0596  0.0813
    1DIPC   NC310033   5.490  22.208   5.930 -0.0354 -0.1475 -0.1539
    1DIPC   PO410034   4.985  22.118   5.923 -0.1366 -0.0132  0.3201
    1DIPC   GL110035   4.829  22.092   5.505 -0.1936 -0.0972 -0.2271
    1DIPC   GL210036   5.121  22.081   5.186 -0.1436 -0.2822  0.2070
    1DIPC   C1A10037   4.487  22.252   5.220 -0.0902 -0.0684  0.1921
    1DIPC   D2A10038   4.242  22.171   4.865 -0.0365 -0.1913 -0.0290
    1DIPC   D3A10039   4.315  22.393   4.508 -0.1715 -0.3608  0.0190
    1DIPC   C4A10040   4.442  22.118   4.127 -0.2293 -0.0469  0.1738
    1DIPC   C1B10041   5.206  21.864   4.728  0.1160 -0.2858 -0.3765
    1DIPC   D2B10042   5.251  21.550   4.408  0.0809 -0.0364 -0.2075
    1DIPC   D3B10043   5.074  21.627   4.034  0.1878 -0.0270 -0.2607
    1DIPC   C4B10044   4.956  22.083   4.059  0.1132 -0.1756 -0.1963
    1DIPC   NC310045  16.532  23.290   5.443  0.0212 -0.1044 -0.0242
    1DIPC   PO410046  16.380  23.683   5.592  0.2124  0.1619  0.1280
    1DIPC   GL110047  16.695  23.923   5.289  0.3125 -0.1526 -0.1062
    1DIPC   GL210048  16.993  23.629   5.187  0.0365  0.0299 -0.0466
    1DIPC   C1A10049  16.922  24.228   5.002  0.1278  0.0934  0.0178
    1DIPC   D2A10050  17.061  24.640   5.172 -0.0521  0.0702 -0.1159
    1DIPC   D3A10051  17.123  25.039   4.851  0.0308 -0.0915 -0.3144
    1DIPC   C4A10052  17.124  24.854   4.596 -0.3219 -0.1293  0.3256
    1DIPC   C1B10053  16.989  23.678   4.768  0.0272 -0.0244 -0.2240
    1DIPC   D2B10054  16.986  23.994   4.528  0.2625 -0.2655 -0.0334
    1DIPC   D3B10055  16.595  23.992   4.529 -0.0634  0.2470 -0.2580
    1DIPC   C4B10056  16.428  24.285   4.896 -0.0269 -0.1261  0.0160
    1DIPC   NC310057  19.960   5.182   8.660  0.1661 -0.3378 -0.2737
    1DIPC   PO410058  20.003   5.227   8.298 -0.0288  0.1317 -0.1517
    1DIPC   GL110059  19.753   5.408   7.925 -0.0697  0.0415 -0.2446
    1DIPC   GL210060  19.668   5.259   7.732 -0.1080  0.0250 -0.0130
    1DIPC   C1A10061  19.742   5.778   7.616 -0.0215  0.0497  0.2079
    1DIPC   D2A10062  19.689   6.136   7.345 -0.3703  0.0049  0.0855
    1DIPC   D3A10063  19.592   6.097   6.985  0.2105 -0.0983  0.1073
    1DIPC   C4A10064  19.892   6.124   6.631 -0.1724 -0.0734  0.1961
    1DIPC   C1B10065  19.932   5.317   7.372  0.1670  0.1514  0.0255
    1DIPC   D2B10066  20.221   5.282   7.021  0.2117  0.2711 -0.2726
    1DIPC   D3B10067  20.252   5.043   6.657 -0.1698  0.3562  0.0715
    1DIPC   C4B10068  20.236   5.149   6.259 -0.2421 -0.0529 -0.0005
    1DIPC   NC310069  25.054   0.731   6.988 -0.1503 -0.0080  0.0465
    1DIPC   PO410070  25.309   0.961   7.156 -0.1518  0.0030  0.2524
    1DIPC   GL110071  25.400   1.129   6.736  0.1294 -0.1721 -0.0911
    1DIPC   GL210072  25.332   1.429   6.713 -0.2500  0.2801  0.0821
    1DIPC   C1A10073  25.594   1.031   6.440  0.0781 -0.0109 -0.1033
    1DIPC   D2A10074  25.971   1.002   6.138 -0.3739  0.1381  0.2350
    1DIPC   D3A10075  25.795   1.005   5.712 -0.0997  0.3097  0.0170
    1DIPC   C4A10076  25.444   1.286   5.706  0.5031 -0.1870 -0.1394
    1DIPC   C1B10077  25.267   1.322   6.162 -0.0198  0.0178  0.2148
    1DIPC   D2B10078  25.107   1.655   5.861  0.0447 -0.2101  0.0643
    1DIPC   D3B10079  24.877   1.799   5.540 -0.0307  0.1758 -0.1323
    1DIPC   C4B10080  24.504   1.709   5.298 -0.2279 -0.0156  0.0836
    1DIPC   NC310081  11.138  15.754   6.214  0.0919 -0.0487  0.1257
    1DIPC   PO410082  11.518  15.873   6.174  0.0700 -0.0000  0.1423
    1DIPC   GL110083  11.302  15.847   5.758 -0.0285 -0.4293 -0.1160
    1DIPC   GL210084  11.189  15.578   5.701 -0.4279  0.2895 -0.0696
    1DIPC   C1A10085  11.205  16.050   5.431 -0.3588  0.0120  0.2334
    1DIPC   D2A10086  11.445  16.145   5.088  0.2199  0.0886 -0.0046
    1DIPC   D3A10087  11.452  16.459   5.055 -0.0567 -0.0821 -0.1007
    1DIPC   C4A10088  11.185  16.677   4.677 -0.0249 -0.1418  0.0756
    1DIPC   C1B10089  10.843  15.797   5.478 -0.0695  0.0852 -0.2161
    1DIPC   D2B10090  10.664  16.052   5.112 -0.0214  0.1516 -0.0062
    1DIPC   D3B10091  10.522  15.691   4.926  0.2861 -0.3276 -0.0223
    1DIPC   C4B10092  10.311  15.575   4.674 -0.0300 -0.2380  0.2214
    1DIPC   NC310093   1.847   8.743   6.274  0.1908 -0.1584  0.1047
    1DIPC   PO410094   2.071   8.411   5.974 -0.0221 -0.2063 -0.0536
    1DIPC   GL110095   2.092   8.440   5.544  0.3184  0.4119  0.0596
    1DIPC   GL210096   1.991   8.715   5.388 -0.1986  0.0684 -0.0194
    1DIPC   C1A10097   2.222   8.255   5.200  0.4610  0.0200 -0.0111
    1DIPC   D2A10098   2.403   8.349   4.834 -0.3287 -0.3107 -0.1330
    1DIPC   D3A10099   1.998   8.575   4.934 -0.1513  0.2549  0.1243
    1DIPC   C4A10100   1.874   8.947   4.746  0.1093 -0.2479 -0.1290
    1DIPC   C1B10101   1.625   8.750   5.123  0.0651  0.0760  0.0818
    1DIPC   D2B10102   1.241   8.680   5.005  0.2942  0.1420 -0.1764
    1DIPC   D3B10103   0.963   9.009   4.797 -0.2181 -0.3653 -0.0988
    1DIPC   C4B10104   0.522   8.733   4.884 -0.1811 -0.3006 -0.2191
    1DIPC   NC310105  16.053   0.675   7.681  0.2795  0.0665 -0.0115
    1DIPC   PO410106  16.239   0.362   7.395  0.0520  0.1776 -0.0159
    1DIPC   GL110107  16.310   0.464   7.109  0.0280  0.4992  0.2803
    1DIPC   GL210108  16.056   0.280   6.868  0.1354  0.3876  0.0567
    1DIPC   C1A10109  16.566   0.784   6.921  0.2094 -0.1505 -0.0262
    1DIPC   D2A10110  16.521   1.200   6.769 -0.3155 -0.2980 -0.0971
    1DIPC   D3A10111  16.979   1.245   6.548  0.2306  0.0336 -0.2153
    1DIPC   C4A10112  17.076   1.082   6.073 -0.2822 -0.1940  0.0729
    1DIPC   C1B10113  16.067   0.499   6.307  0.0832  0.0423 -0.0924
    1DIPC   D2B10114  15.818   0.820   5.948  0.1368 -0.0221 -0.2720
    1DIPC   D3B10115  15.589   0.512   6.236  0.0660  0.1666  0.0875
    1DIPC   C4B10116  15.377   0.132   6.106 -0.2510  0.0779  0.1328
    1DIPC   NC310117  29.360   4.062   6.736  0.2522 -0.2194 -0.2821
    1DIPC   PO410118  29.197   4.338   6.384 -0.2160  0.1867  0.0877
    1DIPC   GL110119  29.178   4.177   5.987  0.1717  0.0138 -0.1922
    1DIPC   GL210120  28.838   3.923   5.995  0.0118 -0.2093  0.2152
    1DIPC   C1A10121  28.868   4.222   5.574  0.1212  0.2991  0.0894
    1DIPC   D2A10122  28.449   4.529   5.547 -0.0551  0.3480  0.0956
    1DIPC   D3A10123  28.131   4.426   5.358 -0.1156 -0.3609  0.0678
    1DIPC   C4A10124  27.696   4.202   5.040 -0.1375 -0.1169  0.0083
    1DIPC   C1B10125  28.724   3.726   5.603 -0.0391  0.0417 -0.0979
    1DIPC   D2B10126  28.941   3.418   5.479  0.1926 -0.1529 -0.0339
    1DIPC   D3B10127  28.662   3.297   5.149  0.0298  0.1940  0.5558
    1DIPC   C4B10128  28.548   3.660   4.910  0.3410  0.3610 -0.1905
    1DIPC   NC310129  19.688   1.967   8.354 -0.0365  0.0922 -0.0639
    1DIPC   PO410130  19.816   1.631   8.117 -0.3795  0.3063  0.0586
    1DIPC   GL110131  19.771   1.748   7.629  0.0660 -0.1740 -0.0376
    1DIPC   GL210132  19.752   1.441   7.487 -0.1359 -0.3831 -0.0585
    1DIPC   C1A10133  20.190   1.691   7.408  0.1333  0.0390 -0.1201
    1DIPC   D2A10134  20.502   1.509   7.267  0.2168 -0.1201  0.2404
    1DIPC   D3A10135  20.681   1.878   7.169 -0.1635 -0.0611  0.1361
    1DIPC   C4A10136  20.636   1.962   6.803  0.1428 -0.1368  0.2128
    1DIPC   C1B10137  19.757   1.795   7.184 -0.0483 -0.0101  0.1968
    1DIPC   D2B10138  20.168   1.972   7.058  0.0965 -0.0821 -0.0876
    1DIPC   D3B10139  20.047   2.205   7.360 -0.0335 -0.0232 -0.4266
    1DIPC   C4B10140  19.840   2.704   7.237  0.2011 -0.0292  0.1611
    1DIPC   NC310141  11.266   5.417   7.357  0.2256  0.0512 -0.4905
    1DIPC   PO410142  10.884   5.571   7.200  0.0579 -0.1469  0.0864
    1DIPC   GL110143  10.978   5.698   6.842  0.0020  0.1635  0.2054
    1DIPC   GL210144  10.823   5.349   6.726 -0.2756 -0.0467  0.1198
    1DIPC   C1A10145  11.146   5.748   6.434 -0.1716  0.1982  0.0054
    1DIPC   D2A10146  11.259   5.897   6.050  0.0561 -0.0683  0.2881
    1DIPC   D3A10147  11.130   6.218   5.732  0.0888 -0.2349 -0.0581
    1DIPC   C4A10148  11.358   6.383   5.390  0.1465  0.2648 -0.0051
    1DIPC   C1B10149  10.683   5.392   6.330 -0.3478  0.1202 -0.2427
    1DIPC   D2B10150  10.840   5.631   5.981 -0.1403 -0.0298  0.0948
    1DIPC   D3B10151  10.742   5.129   5.811  0.0633 -0.0973 -0.0258
    1DIPC   C4B10152  10.789   4.648   5.984 -0.1020 -0.3329  0.0204
    1DIPC   NC310153  26.428   1.876   7.396  0.0498  0.0307  0.1610
    1DIPC   PO410154  26.156   1.952   7.027  0.4060 -0.1885  0.3117
    1DIPC   GL110155  26.274   2.315   6.622  0.1629  0.4577 -0.0070
    1DIPC   GL210156  26.480   2.104   6.457  0.1140  0.2409 -0.1818
    1DIPC   C1A10157  26.139   2.424   6.078 -0.1961 -0.3295  0.1310
    1DIPC   D2A10158  25.722   2.402   6.005  0.0090  0.0103  0.0674
    1DIPC   D3A10159  25.710   2.471   5.543 -0.2834  0.2836 -0.3917
    1DIPC   C4A10160  25.428   2.468   5.231  0.4493 -0.0244 -0.0086
    1DIPC   C1B10161  26.559   2.131   6.033  0.0525  0.1539 -0.1640
    1DIPC   D2B10162  26.509   2.452   5.719  0.1591 -0.0971 -0.0926
    1DIPC   D3B10163  26.943   2.350   5.819 -0.0696  0.0728 -0.0285
    1DIPC   C4B10164  27.099   2.510   5.608 -0.0045  0.0120  0.1644
    1DIPC   NC310165  27.527  22.590   6.599 -0.1194  0.2537 -0.1467
    1DIPC   PO410166  27.266  22.376   6.389  0.1147  0.2203  0.0850
    1DIPC   GL110167  27.200  22.478   5.974 -0.0371  0.3409  0.0353
    1DIPC   GL210168  27.495  22.464   5.847  0.1346  0.1258 -0.2846
    1DIPC   C1A10169  27.038  22.264   5.617  0.2110 -0.0353 -0.0857
    1DIPC   D2A10170  26.873  22.036   5.208  0.0532  0.0293 -0.1563
    1DIPC   D3A10171  26.899  21.606   5.301 -0.3741 -0.0802  0.0574
    1DIPC   C4A10172  27.364  21.465   5.293 -0.0834 -0.0889 -0.0805
    1DIPC   C1B10173  27.468  22.481   5.382  0.0769 -0.0112 -0.3876
    1DIPC   D2B10174  27.263  22.311   5.018  0.0214  0.0179 -0.2101
    1DIPC   D3B10175  27.670  22.320   4.978 -0.1289 -0.1760  0.2237
    1DIPC   C4B10176  27.815  22.313   4.518  0.2519 -0.0511  0.0035
    1DIPC   NC310177  18.915   3.191   7.864  0.3407  0.0021 -0.4034
    1DIPC   PO410178  18.935   3.608   7.710 -0.0139 -0.0790  0.2087
    1DIPC   GL110179  19.148   3.471   7.393  0.1776  0.0835  0.2736
    1DIPC   GL210180  18.870   3.616   7.218 -0.3740 -0.1837 -0.0380
    1DIPC   C1A10181  19.371   3.592   7.047  0.4053  0.0744  0.1475
    1DIPC   D2A10182  19.160   3.930   6.757 -0.1298 -0.1906  0.0232
    1DIPC   D3A10183  19.653   3.904   6.815 -0.2344 -0.4571  0.0692
    1DIPC   C4A10184  19.624   3.604   6.517  0.0767  0.3476  0.1715
    1DIPC   C1B10185  18.687   3.875   6.872 -0.2963  0.0684  0.0941
    1DIPC   D2B10186  18.541   3.921   6.454 -0.5076  0.0276 -0.1834
    1DIPC   D3B10187  18.152   4.009   6.334  0.1686  0.0483 -0.0037
    1DIPC   C4B10188  18.033   3.912   5.862 -0.1481 -0.0798  0.1340
    1DIPC   NC310189  15.674   4.703   7.858 -0.0475  0.0416  0.3451
    1DIPC   PO410190  15.985   4.974   7.743 -0.1974  0.2405 -0.1037
    1DIPC   GL110191  15.851   5.203   7.442  0.1469  0.0422 -0.1524
    1DIPC   GL210192  15.931   5.158   7.163  0.1961  0.0783 -0.1503
    1DIPC   C1A10193  15.578   5.560   7.356  0.2579 -0.1097  0.1051
    1DIPC   D2A10194  15.131   5.592   7.197  0.0369 -0.0526 -0.2254
    1DIPC   D3A10195  15.021   5.470   6.804  0.4355  0.1033 -0.1956
    1DIPC   C4A10196  14.888   5.732   6.490 -0.0346 -0.0875 -0.2365
    1DIPC   C1B10197  16.243   5.239   6.959 -0.5874 -0.0480  0.2525
    1DIPC   D2B10198  16.445   5.216   6.588  0.0065 -0.0058  0.0013
    1DIPC   D3B10199  16.728   5.507   6.397  0.4360 -0.0597 -0.1176
    1DIPC   C4B10200  16.808   5.473   6.021  0.3042 -0.0498  0.0158
    1DIPC   NC310201  29.420  18.143   6.813 -0.0323 -0.2126 -0.1585
    1DIPC   PO410202  29.309  17.903   6.511 -0.2082  0.1031 -0.2383
    1DIPC   GL110203  29.222  18.011   6.083  0.0933 -0.0791 -0.1574
    1DIPC   GL210204  28.877  18.163   5.990 -0.0356 -0.3669  0.1462
    1DIPC   C1A10205  29.186  17.885   5.620 -0.0687 -0.2162 -0.0419
    1DIPC   D2A10206  29.198  17.621   5.271  0.0605 -0.0906  0.0736
    1DIPC   D3A10207  29.219  17.918   5.054 -0.1407  0.1249  0.2341
    1DIPC   C4A10208  29.484  17.752   4.760  0.1508 -0.1523 -0.0798
    1DIPC   C1B10209  28.622  18.156   5.699  0.0604  0.0221 -0.0463
    1DIPC   D2B10210  28.431  18.310   5.412 -0.2037  0.0140 -0.2758
    1DIPC   D3B10211  28.845  18.040   5.311  0.3594 -0.0424 -0.0411
    1DIPC   C4B10212  28.867  17.641   4.929 -0.0113  0.1026  0.1137
    1DIPC   NC310213  28.745  23.625   7.050 -0.1811 -0.1121  0.0708
    1DIPC   PO410214  28.932  23.757   6.693 -0.3112 -0.1986  0.3028
    1DIPC   GL110215  28.789  23.731   6.290 -0.1269 -0.1147 -0.0542
    1DIPC   GL210216  29.106  23.812   6.137  0.1622 -0.1270 -0.0527
    1DIPC   C1A10217  28.558  23.941   5.959  0.2235 -0.0279 -0.3657
    1DIPC   D2A10218  28.424  23.976   5.559 -0.0803  0.2512 -0.2173
    1DIPC   D3A10219  28.530  23.910   5.076 -0.0503 -0.2237 -0.1480
    1DIPC   C4A10220  28.356  24.128   4.852  0.0763 -0.4630  0.3032
    1DIPC   C1B10221  29.023  23.845   5.788 -0.1488  0.3020  0.0795
    1DIPC   D2B10222  28.893  24.099   5.428 -0.1201 -0.1103  0.2441
    1DIPC   D3B10223  28.904  23.641   5.230 -0.2414  0.3953  0.2257
    1DIPC   C4B10224  28.833  23.390   4.894  0.0673 -0.0594  0.0792
    1DIPC   NC310225  10.099   9.945   6.632 -0.3121  0.2573 -0.3837
    1DIPC   PO410226   9.929  10.277   6.683 -0.1480 -0.0477 -0.0926
    1DIPC   GL110227  10.085  10.501   6.332  0.0682 -0.0783  0.1989
    1DIPC   GL210228  10.366  10.294   6.382  0.1365 -0.0132 -0.1642
    1DIPC   C1A10229   9.952  10.442   5.893 -0.0770 -0.0935 -0.0692
    1DIPC   D2A10230  10.126  10.664   5.544 -0.4063 -0.1919 -0.2383
    1DIPC   D3A10231   9.697  10.913   5.256 -0.3065  0.3863  0.0463
    1DIPC   C4A10232   9.487  10.719   4.987  0.2478  0.0481 -0.2409
    1DIPC   C1B10233  10.396  10.102   6.035  0.0206 -0.4119 -0.4046
    1DIPC   D2B10234  10.420  10.125   5.644  0.2771  0.1098  0.2268
    1DIPC   D3B10235  10.050  10.216   5.410 -0.1268  0.1109  0.1833
    1DIPC   C4B10236  10.015  10.505   5.082 -0.1949  0.3679  0.1315
    1DIPC   NC310237  15.807  28.228   6.939 -0.2186 -0.3314 -0.0786
    1DIPC   PO410238  16.147  28.094   6.747  0.1272  0.0008  0.1941
    1DIPC   GL110239  16.102  28.173   6.289  0.1013  0.1743  0.2732
    1DIPC   GL210240  16.291  28.013   6.089  0.1187 -0.1421  0.3058
    1DIPC   C1A10241  15.931  28.499   5.988 -0.0285  0.0268 -0.0594
    1DIPC   D2A10242  16.064  28.629   5.651 -0.1355  0.0691  0.0140
    1DIPC   D3A10243  15.791  28.498   5.409 -0.1914  0.3663 -0.0488
    1DIPC   C4A10244  15.564  28.185   5.404 -0.1085  0.1903 -0.1414
    1DIPC   C1B10245  16.762  28.126   5.865  0.1559 -0.0906 -0.1036
    1DIPC   D2B10246  16.820  28.250   5.402 -0.0131 -0.1377  0.2568
    1DIPC   D3B10247  16.966  28.085   5.036  0.0481  0.0355 -0.1524
    1DIPC   C4B10248  17.361  28.242   4.931  0.0398  0.1965 -0.1075
    1DIPC   NC310249  19.219   6.505   8.234 -0.0469  0.1904  0.1279
    1DIPC   PO410250  19.648   6.674   8.107 -0.1342  0.0206 -0.1658
    1DIPC   GL110251  19.758   6.738   7.641  0.1176  0.1679 -0.4244
    1DIPC   GL210252  19.932   6.584   7.568  0.1200  0.2565  0.1950
    1DIPC   C1A10253  19.634   7.047   7.285 -0.3958  0.2991 -0.0006
    1DIPC   D2A10254  19.330   6.987   6.995  0.1611  0.0938  0.1190
    1DIPC   D3A10255  19.250   6.819   6.556  0.0769 -0.0309  0.1332
    1DIPC   C4A10256  19.388   6.824   6.058  0.0906 -0.2469 -0.3190
    1DIPC   C1B10257  20.094   6.911   7.365  0.1140 -0.3213 -0.3457
    1DIPC   D2B10258  20.459   7.113   7.075  0.0491  0.2033  0.4781
    1DIPC   D3B10259  20.435   7.021   6.711 -0.0077 -0.1114  0.1660
    1DIPC   C4B10260  20.225   6.611   6.597  0.1206 -0.0589 -0.0582
    1DIPC   NC310261  24.810  22.768   6.938  0.0834 -0.0069  0.0731
    1DIPC   PO410262  25.009  22.952   6.589  0.2457  0.1876 -0.2422
    1DIPC   GL110263  25.128  22.801   6.141  0.0927  0.1024  0.1197
    1DIPC   GL210264  25.434  22.566   6.129 -0.1540  0.0283  0.3429
    1DIPC   C1A10265  24.915  22.687   5.688  0.2053 -0.3726 -0.1251
    1DIPC   D2A10266  24.625  22.521   5.466  0.3350 -0.1432 -0.1004
    1DIPC   D3A10267  24.993  22.452   5.270 -0.0373 -0.1873  0.4524
    1DIPC   C4A10268  25.174  22.506   4.944  0.2166 -0.0051 -0.0179
    1DIPC   C1B10269  25.334  22.918   5.733  0.1034 -0.5507  0.4523
    1DIPC   D2B10270  25.420  22.930   5.254 -0.0520  0.1048 -0.0555
    1DIPC   D3B10271  25.673  22.674   4.939 -0.0697 -0.1130 -0.0192
    1DIPC   C4B10272  25.899  22.379   4.836  0.1134  0.2347 -0.2991
    1DIPC   NC310273  22.150  24.149   5.995  0.2067  0.0460  0.1717
    1DIPC   PO410274  22.072  23.689   5.732  0.2014  0.1213  0.1688
    1DIPC   GL110275  22.074  23.736   5.327  0.4025  0.1153 -0.0202
    1DIPC   GL210276  21.880  23.455   5.250 -0.1220 -0.0003  0.2121
    1DIPC   C1A10277  22.229  23.982   4.976 -0.1929  0.2972  0.1779
    1DIPC   D2A10278  22.123  24.323   4.812  0.2690 -0.0366 -0.0099
    1DIPC   D3A10279  21.882  24.251   5.181 -0.1525  0.3878  0.1229
    1DIPC   C4A10280  21.562  23.919   5.230  0.0550  0.2030  0.0426
    1DIPC   C1B10281  21.656  23.486   4.955 -0.0538  0.0291  0.2633
    1DIPC   D2B10282  21.300  23.725   4.850  0.0024  0.2665 -0.0104
    1DIPC   D3B10283  21.530  23.530   4.472 -0.0254  0.0037 -0.3869
    1DIPC   C4B10284  21.406  23.539   4.083  0.0597  0.2095  0.2995
    1DIPC   NC310285  13.428   4.165   8.090  0.0017  0.0121 -0.4317
    1DIPC   PO410286  13.097   3.823   8.002 -0.1915 -0.2838 -0.0701
    1DIPC   GL110287  13.363   3.887   7.599  0.1100 -0.0066  0.0377
    1DIPC   GL210288  13.382   3.657   7.343  0.0175  0.0524 -0.0421
    1DIPC   C1A10289  13.591   4.047   7.195  0.3099  0.3587 -0.2407
    1DIPC   D2A10290  13.755   4.330   6.909 -0.0709  0.1277  0.1354
    1DIPC   D3A10291  13.544   4.040   6.658 -0.0807  0.2733 -0.1079
    1DIPC   C4A10292  13.555   3.944   6.205 -0.0469  0.0706  0.0566
    1DIPC   C1B10293  13.370   3.642   6.899  0.1900 -0.0100 -0.1670
    1DIPC   D2B10294  13.237   3.584   6.436 -0.0989 -0.1305 -0.2744
    1DIPC   D3B10295  12.916   3.381   6.321  0.0673 -0.4729  0.2335
    1DIPC   C4B10296  12.649   3.506   5.997 -0.3166  0.1179 -0.1463
    1DIPC   NC310297  21.366  24.420   5.959  0.0904 -0.0867  0.0561
    1DIPC   PO410298  21.692  24.389   6.112  0.1090 -0.1060  0.1327
    1DIPC   GL110299  21.858  24.727   5.813  0.1499  0.0201 -0.1850
    1DIPC   GL210300  21.653  24.601   5.519  0.2660  0.1767  0.1990
    1DIPC   C1A10301  22.166  24.591   5.516  0.1652  0.0936  0.2971
    1DIPC   D2A10302  22.488  24.528   5.259  0.2488 -0.1871 -0.1051
    1DIPC   D3A10303  22.628  24.253   4.900  0.0131  0.1359 -0.0861
    1DIPC   C4A10304  22.502  24.487   4.538  0.1566 -0.0154  0.0497
    1DIPC   C1B10305  21.455  24.540   5.229 -0.0102  0.1011 -0.0614
    1DIPC   D2B10306  21.308  24.261   4.974 -0.2468 -0.5119  0.1754
    1DIPC   D3B10307  21.037  24.166   4.694 -0.0271  0.3105 -0.0580
    1DIPC   C4B10308  21.240  23.954   4.372 -0.0616 -0.1071  0.0019
    1DIPC   NC310309   9.877  26.754   6.122 -0.0280 -0.1843  0.1360
    1DIPC   PO410310   9.923  27.098   5.963 -0.0201 -0.3090 -0.0221
    1DIPC   GL110311   9.743  26.975   5.620 -0.0266  0.0463  0.0852
    1DIPC   GL210312   9.516  26.859   5.581  0.0636  0.2895  0.2573
    1DIPC   C1A10313   9.717  27.224   5.293  0.2501  0.2297 -0.1773
    1DIPC   D2A10314   9.582  27.493   5.038 -0.0927 -0.2173  0.0729
    1DIPC   D3A10315   9.950  27.280   4.870  0.0913  0.0380 -0.0489
    1DIPC   C4A10316   9.934  26.815   4.824 -0.1097 -0.0216  0.0795
    1DIPC   C1B10317   9.572  26.742   5.142 -0.0174  0.0035 -0.1493
    1DIPC   D2B10318   9.259  26.508   4.859  0.0012  0.1214  0.2994
    1DIPC   D3B10319   8.914  26.613   4.664 -0.2616  0.2186 -0.1078
    1DIPC   C4B10320   8.794  26.451   4.211  0.1563 -0.0938  0.3351
    1DIPC   NC310321  18.067   2.285   8.570  0.2701 -0.1421 -0.2124
    1DIPC   PO410322  18.323   2.539   8.184  0.1687  0.0177  0.2544
    1DIPC   GL110323  18.236   2.328   7.830 -0.1419 -0.1657 -0.1589
    1DIPC   GL210324  17.932   2.185   7.683  0.4660  0.1231 -0.1071
    1DIPC   C1A10325  18.340   2.273   7.457 -0.0548 -0.0718 -0.1216
    1DIPC   D2A10326  18.367   2.398   6.992 -0.0081  0.1201 -0.0619
    1DIPC   D3A10327  18.331   2.787   6.797  0.1254 -0.1735 -0.2556
    1DIPC   C4A10328  18.088   2.747   6.400  0.2148  0.0817 -0.2712
    1DIPC   C1B10329  17.908   2.313   7.186 -0.0226 -0.1809 -0.0914
    1DIPC   D2B10330  17.868   2.455   6.775  0.0343 -0.0550  0.0791
    1DIPC   D3B10331  18.163   2.212   6.415 -0.1709 -0.0593 -0.2209
    1DIPC   C4B10332  18.335   2.439   6.044  0.5077  0.0620 -0.0682
    1DIPC   NC310333   1.776  25.840   5.295 -0.4494 -0.0252  0.2046
    1DIPC   PO410334   2.231  26.035   5.208  0.1650  0.0490 -0.0993
    1DIPC   GL110335   2.307  25.863   4.785  0.0602  0.0166  0.2199
    1DIPC   GL210336   2.496  26.134   4.600 -0.2331 -0.1155 -0.1892
    1DIPC   C1A10337   1.906  25.485   4.713  0.0371  0.3421 -0.1492
    1DIPC   D2A10338   1.543  25.440   4.433  0.2086  0.3173 -0.1822
    1DIPC   D3A10339   1.687  25.115   4.392 -0.1491 -0.1002  0.0310
    1DIPC   C4A10340   1.340  24.902   4.163 -0.3718  0.0097 -0.2509
    1DIPC   C1B10341   2.053  26.246   4.561 -0.1492 -0.1019 -0.0749
    1DIPC   D2B10342   1.720  26.469   4.546  0.0621  0.1164  0.1227
    1DIPC   D3B10343   1.826  26.521   4.094  0.1401  0.2714 -0.0560
    1DIPC   C4B10344   1.862  26.079   3.923  0.0582 -0.3759  0.1523
    1DIPC   NC310345  27.319  13.098   6.972 -0.1235  0.2828 -0.1633
    1DIPC   PO410346  27.477  13.499   6.839  0.1058 -0.2926  0.1572
    1DIPC   GL110347  27.415  13.813   6.501 -0.1292  0.2570 -0.1500
    1DIPC   GL210348  27.642  13.988   6.348  0.0262  0.0677  0.1524
    1DIPC   C1A10349  27.193  13.949   6.088  0.1256 -0.4596 -0.1525
    1DIPC   D2A10350  27.076  14.188   5.685  0.0817 -0.1168 -0.2340
    1DIPC   D3A10351  27.107  14.129   5.206 -0.2482  0.0152  0.1164
    1DIPC   C4A10352  27.316  13.717   5.059  0.2990  0.0796  0.0834
    1DIPC   C1B10353  27.642  14.078   5.936  0.0258  0.1109 -0.0080
    1DIPC   D2B10354  27.517  14.386   5.587  0.1794  0.1422  0.1860
    1DIPC   D3B10355  27.789  14.523   5.206  0.1196  0.2602  0.0709
    1DIPC   C4B10356  27.755  14.905   4.897  0.1646  0.3551  0.2892
    1DIPC   NC310357   0.116  17.347   6.918 -0.0171  0.0635  0.0398
    1DIPC   PO410358   0.456  17.349   6.492  0.5170 -0.0647 -0.4766
    1DIPC   GL110359   0.418  17.177   6.107 -0.1403  0.2255 -0.0914
    1DIPC   GL210360   0.519  16.898   6.082 -0.0697  0.1218  0.1985
    1DIPC   C1A10361   0.685  17.230   5.701  0.2406 -0.0142 -0.0405
    1DIPC   D2A10362   0.999  17.275   5.434  0.2574 -0.0817 -0.3564
    1DIPC   D3A10363   1.141  17.292   5.784 -0.2630  0.0770  0.0459
    1DIPC   C4A10364   1.463  16.964   5.823 -0.0965  0.1615  0.0145
    1DIPC   C1B10365   0.392  16.653   5.765 -0.0903  0.1452  0.0565
    1DIPC   D2B10366   0.378  16.445   5.408  0.0310  0.1891  0.1319
    1DIPC   D3B10367   0.462  16.534   5.025 -0.1213 -0.1440  0.0663
    1DIPC   C4B10368   0.577  16.322   4.758  0.2175 -0.2781  0.0858
    1DIPC   NC310369  11.531  14.881   6.422  0.0633  0.1528 -0.1169
    1DIPC   PO410370  11.150  14.959   6.351  0.0430 -0.2002 -0.2668
    1DIPC   GL110371  11.166  15.216   6.057 -0.3926 -0.0398 -0.0983
    1DIPC   GL210372  11.172  15.080   5.699  0.0876 -0.2406 -0.0331
    1DIPC   C1A10373  11.608  15.310   5.804  0.1447 -0.0233  0.0227
    1DIPC   D2A10374  11.914  15.242   5.425  0.4047  0.1860 -0.0520
    1DIPC   D3A10375  12.321  15.342   5.318  0.0496  0.4832 -0.0098
    1DIPC   C4A10376  12.608  15.387   5.585 -0.1141  0.0272 -0.1907
    1DIPC   C1B10377  11.396  15.091   5.322 -0.2499  0.2490 -0.2369
    1DIPC   D2B10378  11.463  14.951   4.849  0.1792 -0.2450  0.1994
    1DIPC   D3B10379  11.730  15.238   4.926 -0.0537 -0.1436 -0.1428
    1DIPC   C4B10380  11.609  15.666   4.886  0.2595 -0.2514  0.0768
    1DIPC   NC310381  25.076  23.419   6.684  0.3450  0.1574 -0.2382
    1DIPC   PO410382  24.711  23.532   6.465  0.1680  0.0222  0.0207
    1DIPC   GL110383  24.481  23.402   6.176  0.0717  0.0994 -0.1200
    1DIPC   GL210384  24.417  23.668   6.098 -0.2013  0.0307 -0.1764
    1DIPC   C1A10385  24.272  23.404   5.713 -0.3221  0.5170 -0.0287
    1DIPC   D2A10386  24.239  23.803   5.504  0.0557 -0.3098 -0.1384
    1DIPC   D3A10387  24.078  24.106   5.899 -0.0165  0.1460  0.1318
    1DIPC   C4A10388  23.762  24.383   5.911 -0.3078  0.1839  0.1245
    1DIPC   C1B10389  24.710  23.693   5.727  0.0377 -0.2119  0.0018
    1DIPC   D2B10390  24.721  23.882   5.329  0.0585  0.1972  0.2088
    1DIPC   D3B10391  24.924  23.722   4.964  0.1105  0.1577  0.2773
    1DIPC   C4B10392  24.886  23.332   4.878 -0.0300  0.3361 -0.0635
    1DIPC   NC310393  18.585  28.965   8.058 -0.1793  0.0872  0.3486
    1DIPC   PO410394  18.748  29.004   7.530  0.1516 -0.0393 -0.0135
    1DIPC   GL110395  18.519  29.094   7.117  0.3546 -0.0842 -0.1276
    1DIPC   GL210396  18.470  29.426   6.993  0.2371  0.1293  0.0794
    1DIPC   C1A10397  18.565  29.110   6.606 -0.2714  0.0255  0.0836
    1DIPC   D2A10398  18.635  28.973   6.118 -0.0509 -0.2533 -0.1191
    1DIPC   D3A10399  18.642  29.388   6.055  0.1113  0.0992  0.1795
    1DIPC   C4A10400  18.971  29.663   6.076  0.1051  0.0792  0.3030
    1DIPC   C1B10401  18.497   0.064   7.033 -0.1095 -0.1308  0.0544
    1DIPC   D2B10402  18.578   0.488   7.169  0.2476  0.0863  0.0700
    1DIPC   D3B10403  18.274   0.831   6.891  0.0053 -0.2529  0.1182
    1DIPC   C4B10404  18.377   1.146   6.606  0.4863  0.0165 -0.2626
    1DIPC   NC310405  15.789  26.347   6.433  0.0563 -0.1025 -0.0671
    1DIPC   PO410406  15.361  26.537   6.464  0.3463  0.1530 -0.0216
    1DIPC   GL110407  15.552  26.630   6.017  0.1280  0.0890 -0.1924
    1DIPC   GL210408  15.433  26.950   5.920  0.1325  0.0146 -0.2290
    1DIPC   C1A10409  15.785  26.578   5.634  0.1267  0.1592  0.3302
    1DIPC   D2A10410  15.905  26.481   5.187  0.1173 -0.0991  0.1682
    1DIPC   D3A10411  15.890  26.561   4.781 -0.2113 -0.0387 -0.1521
    1DIPC   C4A10412  15.809  26.995   4.823 -0.1018 -0.1329  0.1643
    1DIPC   C1B10413  15.917  27.087   5.881  0.2402 -0.0678  0.0223
    1DIPC   D2B10414  16.123  26.966   5.499 -0.1908 -0.0610 -0.2931
    1DIPC   D3B10415  16.314  26.655   5.491  0.1545 -0.1721  0.3066
    1DIPC   C4B10416  16.793  26.762   5.549  0.0754  0.4615 -0.3204
    1DIPC   NC310417  29.393   1.939   6.494  0.2303 -0.1952  0.0632
    1DIPC   PO410418  29.665   1.629   6.483  0.4683  0.0205  0.0787
    1DIPC   GL110419  29.675   1.957   6.061 -0.3648 -0.1258 -0.0599
    1DIPC   GL210420  29.508   1.775   5.801  0.0549 -0.1905  0.2551
    1DIPC   C1A10421  29.774   2.133   5.600 -0.2405 -0.2590  0.0703
    1DIPC   D2A10422   0.126   2.502   5.347 -0.1869  0.3116 -0.1161
    1DIPC   D3A10423   0.134   2.507   4.919  0.0621  0.1323  0.4955
    1DIPC   C4A10424  29.658   2.588   4.642 -0.1012  0.1230 -0.1800
    1DIPC   C1B10425  29.544   1.699   5.390 -0.0172 -0.1579 -0.0435
    1DIPC   D2B10426  29.426   1.630   5.015  0.2442 -0.1411 -0.2381
    1DIPC   D3B10427  29.604   1.196   4.753  0.1281  0.1151 -0.0101
    1DIPC   C4B10428  29.414   0.864   4.692  0.1135  0.3345  0.1381
    1DIPC   NC310429  16.306  18.957   5.614  0.2535  0.3601  0.0821
    1DIPC   PO410430  15.842  18.988   5.790 -0.0955 -0.2580 -0.3201
    1DIPC   GL110431  15.769  18.958   5.418 -0.3939 -0.0528 -0.1497
    1DIPC   GL210432  15.618  18.851   5.215  0.0720  0.0665 -0.1173
    1DIPC   C1A10433  15.908  19.178   5.026 -0.1992  0.1168 -0.0285
    1DIPC   D2A10434  15.587  19.190   4.709 -0.1090  0.3789 -0.0170
    1DIPC   D3A10435  15.242  19.067   4.900  0.3451  0.3292  0.2375
    1DIPC   C4A10436  14.848  19.063   4.640  0.1960  0.0651  0.3061
    1DIPC   C1B10437  15.526  18.574   4.957  0.0518  0.1577  0.0425
    1DIPC   D2B10438  15.446  18.405   4.601 -0.1547  0.1305  0.2431
    1DIPC   D3B10439  15.610  18.758   4.384  0.0058  0.0997  0.1651
    1DIPC   C4B10440  15.951  18.859   4.500  0.0296  0.2362 -0.0162
    1DIPC   NC310441  20.146   1.996   8.029 -0.0199  0.3123  0.2238
    1DIPC   PO410442  20.396   2.309   7.986 -0.2062  0.0846 -0.1164
    1DIPC   GL110443  20.540   2.212   7.570 -0.0478  0.0069  0.0202
    1DIPC   GL210444  20.903   2.267   7.403 -0.1205  0.2159 -0.2077
    1DIPC   C1A10445  20.534   2.427   7.113 -0.2455  0.0022  0.0526
    1DIPC   D2A10446  20.695   2.441   6.661  0.2773  0.0755 -0.3539
    1DIPC   D3A10447  20.175   2.400   6.637 -0.0013  0.2147  0.6287
    1DIPC   C4A10448  20.201   1.967   6.544 -0.3590 -0.0932 -0.0918
    1DIPC   C1B10449  21.016   2.274   6.973 -0.0620  0.4366 -0.1081
    1DIPC   D2B10450  21.476   2.301   6.787 -0.1081  0.0307 -0.3147
    1DIPC   D3B10451  21.222   2.482   6.476  0.0811  0.1597  0.1491
    1DIPC   C4B10452  20.850   2.461   6.171 -0.0357 -0.0106 -0.2275
    1DIPC   NC310453  18.729  24.703   5.790 -0.0585  0.0185  0.0426
    1DIPC   PO410454  18.493  25.126   5.929 -0.2525 -0.0029 -0.2150
    1DIPC   GL110455  18.566  25.365   5.603 -0.4112  0.1484 -0.0460
    1DIPC   GL210456  18.430  25.669   5.567  0.0925 -0.1229  0.0990
    1DIPC   C1A10457  18.884  25.327   5.267  0.1493  0.0213 -0.0482
    1DIPC   D2A10458  19.123  25.702   5.090  0.0925 -0.0670 -0.2772
    1DIPC   D3A10459  18.695  25.837   5.153  0.2813 -0.1027  0.1929
    1DIPC   C4A10460  18.422  25.567   5.010  0.1414  0.4419  0.1204
    1DIPC   C1B10461  18.271  26.020   5.322  0.2211 -0.1099 -0.3137
    1DIPC   D2B10462  18.216  26.445   5.157 -0.3427  0.0679 -0.0555
    1DIPC   D3B10463  18.464  26.824   5.029  0.0210  0.0788  0.1543
    1DIPC   C4B10464  18.456  27.046   5.404 -0.1834  0.0109  0.1196
    1DIPC   NC310465  11.833  26.111   6.843  0.1722  0.1173 -0.0943
    1DIPC   PO410466  11.673  26.244   6.445  0.2208 -0.2774  0.1264
    1DIPC   GL110467  11.476  26.432   6.047 -0.1411  0.0914  0.0437
    1DIPC   GL210468  11.425  26.823   6.080  0.1227 -0.1162  0.3498
    1DIPC   C1A10469  11.299  26.351   5.599  0.3158 -0.0086  0.1866
    1DIPC   D2A10470  11.441  26.242   5.133 -0.0612  0.0114 -0.0503
    1DIPC   D3A10471  11.240  26.373   4.739  0.0739 -0.2131 -0.2106
    1DIPC   C4A10472  11.040  26.103   4.544  0.2756  0.2327  0.0881
    1DIPC   C1B10473  11.567  26.900   5.629  0.0093 -0.3219  0.0204
    1DIPC   D2B10474  11.757  26.707   5.310  0.1922 -0.0269 -0.1514
    1DIPC   D3B10475  12.011  27.051   5.506  0.2572  0.1775  0.1023
    1DIPC   C4B10476  12.271  27.160   5.158 -0.2591 -0.1024  0.2028
    1DIPC   NC310477  28.617  13.266   6.545 -0.1555  0.1340 -0.0148
    1DIPC   PO410478  28.485  12.745   6.399  0.0548  0.1777  0.1144
    1DIPC   GL110479  28.353  12.613   6.047 -0.2408  0.0039 -0.0561
    1DIPC   GL210480  28.075  12.636   6.118  0.0058  0.2275 -0.0449
    1DIPC   C1A10481  28.291  12.764   5.724  0.0875 -0.1688 -0.1204
    1DIPC   D2A10482  28.473  12.636   5.332  0.0252 -0.1927  0.2543
    1DIPC   D3A10483  28.077  12.718   5.072 -0.1817  0.2126  0.1317
    1DIPC   C4A10484  27.671  12.907   4.969 -0.1065  0.0349  0.0575
    1DIPC   C1B10485  28.129  12.204   6.016 -0.1651  0.1699 -0.0957
    1DIPC   D2B10486  27.977  12.026   5.698  0.0458 -0.0869 -0.2330
    1DIPC   D3B10487  27.557  12.077   5.504 -0.0740  0.2297  0.0567
    1DIPC   C4B10488  27.272  11.697   5.267 -0.0787  0.0557  0.0925
    1DIPC   NC310489   7.106  24.279   5.874  0.2038  0.1729  0.0291
    1DIPC   PO410490   7.395  24.193   5.485  0.0445 -0.2014  0.2661
    1DIPC   GL110491   7.593  24.457   5.056  0.0359 -0.1141 -0.0120
    1DIPC   GL210492   7.871  24.438   4.959 -0.0692 -0.2010 -0.1215
    1DIPC   C1A10493   7.407  24.508   4.568  0.2981 -0.2076 -0.0894
    1DIPC   D2A10494   7.220  24.579   4.207 -0.0512  0.0976  0.1085
    1DIPC   D3A10495   7.140  24.122   4.405 -0.2159 -0.3974 -0.1458
    1DIPC   C4A10496   7.286  24.055   4.818  0.1541 -0.0564 -0.0102
    1DIPC   C1B10497   8.075  24.433   4.641  0.0901 -0.0673 -0.5208
    1DIPC   D2B10498   8.233  24.433   4.223 -0.0307  0.2857 -0.1293
    1DIPC   D3B10499   7.821  24.597   4.226 -0.0707  0.1891  0.0035
    1DIPC   C4B10500   7.831  24.864   4.657 -0.0846 -0.4069  0.1714
    1DIPC   NC310501   6.251  16.056   6.187 -0.0741  0.3667 -0.0345
    1DIPC   PO410502   6.524  15.832   6.109 -0.0474 -0.1580 -0.0895
    1DIPC   GL110503   6.547  16.088   5.771 -0.1086 -0.1914  0.1533
    1DIPC   GL210504   6.395  16.008   5.494 -0.4491  0.0411  0.1208
    1DIPC   C1A10505   6.459  16.502   5.581 -0.1859 -0.0857 -0.0454
    1DIPC   D2A10506   6.232  16.874   5.485 -0.1204  0.0791 -0.1018
    1DIPC   D3A10507   6.022  16.611   5.224  0.1500  0.0292  0.0485
    1DIPC   C4A10508   6.236  16.694   4.796  0.3355 -0.2559 -0.1865
    1DIPC   C1B10509   6.326  16.186   5.182  0.1695 -0.1702  0.0987
    1DIPC   D2B10510   6.339  16.074   4.706 -0.1913  0.1950 -0.2644
    1DIPC   D3B10511   5.969  16.224   4.646  0.0581  0.3080  0.1355
    1DIPC   C4B10512   5.707  16.670   4.827  0.1632  0.2002 -0.4017
    1DIPC   NC310513  17.970  19.055   5.996 -0.2339  0.2725 -0.4634
    1DIPC   PO410514  17.818  19.305   5.808 -0.4583  0.1018 -0.1116
    1DIPC   GL110515  17.842  19.650   5.411  0.1734  0.0646  0.1200
    1DIPC   GL210516  17.842  19.478   5.197  0.3012 -0.0118 -0.1247
    1DIPC   C1A10517  17.910  19.998   5.147  0.0525  0.2721 -0.2092
    1DIPC   D2A10518  17.806  20.097   4.686 -0.1287  0.0435  0.2723
    1DIPC   D3A10519  17.918  20.445   4.435 -0.0885 -0.1162 -0.0471
    1DIPC   C4A10520  17.720  20.464   3.992 -0.2010  0.1473  0.2171
    1DIPC   C1B10521  18.095  19.199   5.032  0.2826 -0.1507  0.1794
    1DIPC   D2B10522  18.532  19.232   5.097 -0.1875 -0.1137 -0.0813
    1DIPC   D3B10523  18.670  19.133   4.659 -0.0809 -0.1374  0.2133
    1DIPC   C4B10524  18.618  18.729   4.467  0.1553 -0.1567 -0.0472
    1DIPC   NC310525  23.914  18.233   6.129  0.0554 -0.1345  0.0904
    1DIPC   PO410526  24.245  18.577   6.277  0.2149 -0.3674 -0.0251
    1DIPC   GL110527  24.292  18.466   5.892  0.0416 -0.0198 -0.1183
    1DIPC   GL210528  24.313  18.737   5.786  0.0298  0.3048  0.1115
    1DIPC   C1A10529  24.361  18.224   5.616 -0.3777 -0.0332 -0.0728
    1DIPC   D2A10530  24.456  18.047   5.168 -0.2343 -0.2163  0.1491
    1DIPC   D3A10531  24.877  18.040   5.416 -0.1131 -0.0936  0.1394
    1DIPC   C4A10532  24.922  18.052   5.862  0.4042 -0.0309 -0.1343
    1DIPC   C1B10533  24.389  18.758   5.324  0.0518  0.4442 -0.0411
    1DIPC   D2B10534  24.441  18.737   4.870  0.0299  0.1962  0.2786
    1DIPC   D3B10535  24.748  18.961   4.442  0.1240 -0.0638  0.0522
    1DIPC   C4B10536  24.807  19.410   4.318 -0.2097 -0.1666  0.0599
    1DIPC   NC310537  11.876  15.612   6.573  0.0054  0.0305 -0.2105
    1DIPC   PO410538  12.266  15.719   6.269  0.1285  0.2859 -0.0956
    1DIPC   GL110539  12.139  15.948   5.888  0.1380 -0.0488  0.0127
    1DIPC   GL210540  12.282  15.730   5.642  0.1441  0.0306 -0.0519
    1DIPC   C1A10541  12.241  16.190   5.510 -0.0822  0.0926  0.1355
    1DIPC   D2A10542  12.044  16.566   5.485 -0.2185  0.1514 -0.0471
    1DIPC   D3A10543  11.922  16.384   4.990  0.2944 -0.2010 -0.2662
    1DIPC   C4A10544  11.821  16.630   4.688 -0.1470 -0.2625 -0.0246
    1DIPC   C1B10545  12.085  15.785   5.237  0.1651  0.0296 -0.2115
    1DIPC   D2B10546  12.106  15.581   4.871 -0.0414 -0.0134  0.0107
    1DIPC   D3B10547  12.133  15.986   4.787  0.0636  0.0608  0.2181
    1DIPC   C4B10548  12.480  16.180   4.940  0.0601 -0.2688  0.1470
    1DIPC   NC310549  24.640  26.066   6.367  0.0222  0.1344 -0.1680
    1DIPC   PO410550  24.284  26.028   6.212  0.1190  0.3601  0.0333
    1DIPC   GL110551  24.467  26.322   5.929  0.1217  0.1610  0.1757
    1DIPC   GL210552  24.832  26.254   5.800  0.1435  0.1070 -0.0594
    1DIPC   C1A10553  24.283  26.707   5.691  0.0415  0.1527  0.2605
    1DIPC   D2A10554  24.310  26.768   5.312  0.0845 -0.1368  0.0172
    1DIPC   D3A10555  24.559  27.083   5.129 -0.2214  0.1038  0.0107
    1DIPC   C4A10556  24.744  27.064   4.765  0.2711  0.0450  0.1263
    1DIPC   C1B10557  24.815  25.983   5.475  0.1212 -0.0216  0.0341
    1DIPC   D2B10558  25.150  25.888   5.157 -0.1230 -0.0074 -0.2503
    1DIPC   D3B10559  25.072  26.162   4.844 -0.0639 -0.0899  0.2287
    1DIPC   C4B10560  25.145  26.691   4.954 -0.0192 -0.0915  0.3502
    1DIPC   NC310561  10.055  13.011   6.312 -0.1039  0.1713  0.0218
    1DIPC   PO410562  10.229  13.386   6.288  0.3308 -0.0468 -0.2935
    1DIPC   GL110563  10.301  13.253   5.880  0.1189 -0.0644 -0.1635
    1DIPC   GL210564  10.665  13.350   5.849 -0.0285 -0.1112 -0.0451
    1DIPC   C1A10565  10.215  13.088   5.493  0.0477 -0.3044  0.2041
    1DIPC   D2A10566  10.107  13.012   5.055 -0.1324 -0.1347 -0.0600
    1DIPC   D3A10567  10.370  12.840   4.686 -0.3692 -0.1362  0.1693
    1DIPC   C4A10568  10.677  13.141   4.463  0.2345 -0.4387 -0.3686
    1DIPC   C1B10569  10.681  13.326   5.434 -0.0672 -0.1542 -0.3698
    1DIPC   D2B10570  10.823  13.669   5.187  0.2318 -0.1301 -0.0206
    1DIPC   D3B10571  11.230  13.578   5.378 -0.0609  0.1775  0.0496
    1DIPC   C4B10572  11.226  13.155   5.454 -0.2122 -0.1235 -0.0652
    1DIPC   NC310573   1.650  26.719   5.018 -0.0015 -0.0721 -0.0180
    1DIPC   PO410574   1.809  26.404   5.271  0.2903 -0.3742  0.2032
    1DIPC   GL110575   1.678  26.114   4.838 -0.0061  0.1529  0.2971
    1DIPC   GL210576   1.493  25.788   4.886  0.2340  0.0523  0.1389
    1DIPC   C1A10577   1.771  25.929   4.433  0.0173  0.1842 -0.1620
    1DIPC   D2A10578   1.901  25.668   4.235  0.0277 -0.2453 -0.1736
    1DIPC   D3A10579   2.282  25.853   4.178  0.0460 -0.6168 -0.1457
    1DIPC   C4A10580   2.319  26.316   4.116  0.0246 -0.3547  0.0532
    1DIPC   C1B10581   1.201  25.769   4.452  0.0206  0.1529  0.4305
    1DIPC   D2B10582   0.906  25.767   4.065 -0.1709  0.1451  0.3343
    1DIPC   D3B10583   0.769  26.137   3.829 -0.1168  0.3088  0.1086
    1DIPC   C4B10584   0.954  26.245   3.495 -0.0888  0.2481  0.1732
    1DIPC   NC310585  10.640  15.133   6.289  0.2955  0.0526 -0.3538
    1DIPC   PO410586  10.713  15.491   6.081 -0.1760  0.0117 -0.1930
    1DIPC   GL110587  10.699  15.303   5.711  0.1398  0.2209 -0.0766
    1DIPC   GL210588  10.494  15.397   5.369  0.1476  0.0071 -0.4753
    1DIPC   C1A10589  10.640  14.905   5.467 -0.3317  0.0893  0.3789
    1DIPC   D2A10590  10.921  14.863   5.122  0.1532  0.2963  0.0625
    1DIPC   D3A10591  11.234  14.519   5.053 -0.1226 -0.1076  0.2632
    1DIPC   C4A10592  11.419  14.489   4.703  0.1853 -0.3267 -0.2668
    1DIPC   C1B10593  10.919  15.367   5.235 -0.0865  0.1951 -0.2683
    1DIPC   D2B10594  11.085  15.267   4.853  0.0635  0.2245 -0.0993
    1DIPC   D3B10595  11.428  15.329   4.531  0.0760 -0.1748  0.2034
    1DIPC   C4B10596  11.707  15.077   4.388 -0.1401  0.0449 -0.3395
    1DIPC   NC310597  24.696  24.735   6.974  0.0150  0.1403 -0.3909
    1DIPC   PO410598  24.549  24.961   6.458  0.0063  0.0357  0.0271
    1DIPC   GL110599  24.642  25.097   6.011 -0.1596  0.0180  0.0068
    1DIPC   GL210600  24.769  25.294   5.816 -0.0169  0.1387 -0.1619
    1DIPC   C1A10601  24.495  24.915   5.587  0.1543  0.2615  0.1144
    1DIPC   D2A10602  24.298  25.024   5.252 -0.1577 -0.4034  0.1047
    1DIPC   D3A10603  24.241  25.448   5.193 -0.2214 -0.2271 -0.0371
    1DIPC   C4A10604  23.868  25.720   5.317 -0.1250  0.0799  0.0277
    1DIPC   C1B10605  24.699  25.436   5.419 -0.0875  0.3419 -0.1959
    1DIPC   D2B10606  24.712  25.639   5.055  0.0056 -0.0889  0.1677
    1DIPC   D3B10607  24.539  25.342   4.806 -0.2024 -0.3603 -0.2801
    1DIPC   C4B10608  24.291  25.535   4.410  0.0452  0.0673 -0.0008
    1DIPC   NC310609   7.999   7.510   6.717  0.0077  0.0661  0.0956
    1DIPC   PO410610   8.050   7.531   6.302  0.1005  0.0832 -0.2921
    1DIPC   GL110611   8.116   7.523   5.860  0.1958 -0.1280 -0.0440
    1DIPC   GL210612   8.433   7.528   5.932 -0.0911 -0.1764 -0.5824
    1DIPC   C1A10613   7.985   7.630   5.468  0.0774 -0.0365  0.2500
    1DIPC   D2A10614   7.933   7.712   5.103 -0.1854 -0.0309  0.1960
    1DIPC   D3A10615   8.373   7.699   5.162  0.2468  0.0158 -0.0766
    1DIPC   C4A10616   8.438   7.337   5.511  0.3024  0.2584 -0.1641
    1DIPC   C1B10617   8.577   7.771   5.675  0.1156 -0.1191  0.1189
    1DIPC   D2B10618   8.779   8.210   5.592 -0.2933  0.2760  0.0504
    1DIPC   D3B10619   9.214   8.038   5.564  0.2395  0.1288 -0.1063
    1DIPC   C4B10620   9.359   7.652   5.249 -0.0816 -0.1205 -0.0285
    1DIPC   NC310621   7.164  20.916   5.847 -0.3067 -0.2370 -0.2043
    1DIPC   PO410622   6.900  20.832   5.604 -0.3616 -0.0575  0.2249
    1DIPC   GL110623   7.130  20.943   5.271 -0.1953  0.1027  0.2582
    1DIPC   GL210624   6.861  20.881   5.084 -0.1044  0.1068 -0.1648
    1DIPC   C1A10625   7.205  20.964   4.758 -0.1152  0.2661 -0.3002
    1DIPC   D2A10626   7.023  21.217   4.393 -0.3426  0.0807 -0.0527
    1DIPC   D3A10627   7.359  21.552   4.213  0.2159  0.1387  0.3320
    1DIPC   C4A10628   7.789  21.520   3.996 -0.2949 -0.2875 -0.1351
    1DIPC   C1B10629   6.727  20.869   4.726  0.0120 -0.0163 -0.1175
    1DIPC   D2B10630   6.467  20.694   4.395 -0.0692  0.2560 -0.2385
    1DIPC   D3B10631   6.384  21.067   4.219 -0.1435  0.0221 -0.3199
    1DIPC   C4B10632   6.518  21.456   4.058  0.1094  0.4440 -0.2241
    1DIPC   NC310633   0.773  26.748   6.174  0.1789  0.1914  0.0374
    1DIPC   PO410634   1.025  26.526   6.015 -0.0268  0.0627 -0.2596
    1DIPC   GL110635   0.867  26.621   5.599 -0.1774 -0.0209 -0.0251
    1DIPC   GL210636   0.746  26.992   5.567  0.0476 -0.0983  0.0060
    1DIPC   C1A10637   0.710  26.662   5.208  0.1009  0.0100  0.1988
    1DIPC   D2A10638   0.682  26.609   4.742  0.1524 -0.2611 -0.1720
    1DIPC   D3A10639   0.444  26.734   4.435 -0.0423  0.1081  0.1994
    1DIPC   C4A10640  29.829  26.494   4.392  0.3045  0.5179 -0.0449
    1DIPC   C1B10641   0.899  27.074   5.148  0.2330 -0.1206  0.2134
    1DIPC   D2B10642   1.182  26.958   4.804 -0.1844  0.2322  0.0329
    1DIPC   D3B10643   0.927  26.922   4.450  0.2515  0.2332 -0.1752
    1DIPC   C4B10644   1.044  27.348   4.229  0.0787 -0.2403 -0.2084
    1DIPC   NC310645   9.836   3.062   6.938  0.3608  0.4386 -0.1504
    1DIPC   PO410646  10.344   2.996   7.210 -0.0199 -0.1450 -0.1471
    1DIPC   GL110647  10.291   3.023   6.730 -0.3220 -0.1909 -0.1504
    1DIPC   GL210648  10.401   2.707   6.650 -0.1330 -0.0218 -0.1913
    1DIPC   C1A10649  10.453   3.097   6.303 -0.0347 -0.1282  0.0456
    1DIPC   D2A10650  10.689   3.326   6.194 -0.0555  0.0735 -0.2133
    1DIPC   D3A10651  10.876   3.023   5.987 -0.0400  0.1684 -0.0543
    1DIPC   C4A10652  11.147   3.178   5.670  0.0694  0.3789 -0.1268
    1DIPC   C1B10653  10.667   2.653   6.312 -0.0735  0.1040 -0.0654
    1DIPC   D2B10654  10.999   2.560   6.153 -0.3294  0.1750  0.0569
    1DIPC   D3B10655  10.585   2.286   6.009  0.1278 -0.0619 -0.1199
    1DIPC   C4B10656  10.643   2.125   5.587  0.1485 -0.1886 -0.1869
    1DIPC   NC310657   4.916  25.390   5.529  0.0306 -0.2176 -0.0141
    1DIPC   PO410658   4.700  25.777   5.489 -0.0583 -0.1294  0.0203
    1DIPC   GL110659   4.728  25.778   5.058  0.2840  0.2281  0.0335
    1DIPC   GL210660   4.967  26.020   4.999  0.0363  0.0749  0.3320
    1DIPC   C1A10661   4.682  25.418   4.890 -0.0195 -0.0946  0.0247
    1DIPC   D2A10662   4.632  24.929   5.024  0.0684 -0.1143  0.2271
    1DIPC   D3A10663   4.936  25.003   4.645  0.1291 -0.3584  0.2559
    1DIPC   C4A10664   4.867  24.885   4.298 -0.1053 -0.0903  0.1444
    1DIPC   C1B10665   4.838  26.097   4.597 -0.1547 -0.0790  0.1905
    1DIPC   D2B10666   4.740  25.988   4.135 -0.1756  0.5096 -0.1501
    1DIPC   D3B10667   5.227  25.922   4.208  0.2322 -0.0635 -0.0270
    1DIPC   C4B10668   5.565  26.178   4.151 -0.1522  0.3911  0.1811
    1DIPC   NC310669  13.974  24.336   5.618  0.0566  0.1882  0.3366
    1DIPC   PO410670  14.281  24.601   5.622 -0.1065  0.3625  0.1306
    1DIPC   GL110671  14.148  24.692   5.214 -0.1548 -0.0797  0.1613
    1DIPC   GL210672  14.099  24.399   4.985 -0.1651 -0.4071 -0.3278
    1DIPC   C1A10673  13.881  24.867   5.034 -0.0857  0.1947 -0.2654
    1DIPC   D2A10674  14.009  25.025   4.655  0.0488 -0.1128 -0.1023
    1DIPC   D3A10675  13.954  25.476   4.468  0.1441 -0.2406  0.1268
    1DIPC   C4A10676  14.298  25.648   4.213  0.2968 -0.0755  0.2789
    1DIPC   C1B10677  13.970  24.469   4.630 -0.3398 -0.0682  0.3407
    1DIPC   D2B10678  13.898  24.577   4.243  0.0970  0.1004 -0.2197
    1DIPC   D3B10679  13.573  24.817   4.400 -0.1527 -0.0903  0.0477
    1DIPC   C4B10680  13.516  25.198   4.649 -0.2422  0.0551 -0.1469
    1DIPC   NC310681   1.496   7.820   6.430 -0.1224  0.3048 -0.2088
    1DIPC   PO410682   1.418   7.408   6.404 -0.0487 -0.2832 -0.2376
    1DIPC   GL110683   1.256   7.312   6.032 -0.0548 -0.0585  0.0916
    1DIPC   GL210684   0.973   7.503   6.149  0.3256  0.0381  0.1241
    1DIPC   C1A10685   1.080   7.282   5.524 -0.1295 -0.1865 -0.4015
    1DIPC   D2A10686   0.907   7.252   5.103 -0.0059  0.3156 -0.2368
    1DIPC   D3A10687   1.168   7.602   4.853  0.2123 -0.1948  0.0140
    1DIPC   C4A10688   1.600   7.642   4.885 -0.1542  0.1228 -0.1622
    1DIPC   C1B10689   0.847   7.660   5.724 -0.2004 -0.1871  0.0292
    1DIPC   D2B10690   0.856   7.739   5.327 -0.2399 -0.0989 -0.0450
    1DIPC   D3B10691   0.572   8.040   5.233 -0.1518  0.1574 -0.2530
    1DIPC   C4B10692   0.451   8.192   4.866  0.1290  0.4026 -0.2119
    1DIPC   NC310693   6.014  22.870   5.858 -0.1900 -0.2053  0.0120
    1DIPC   PO410694   5.739  22.655   5.625  0.0350 -0.3761 -0.6679
    1DIPC   GL110695   5.992  22.520   5.317 -0.1236 -0.1824 -0.2359
    1DIPC   GL210696   6.054  22.892   5.327 -0.0520 -0.2539 -0.0044
    1DIPC   C1A10697   6.354  22.577   5.101 -0.2914 -0.0196 -0.5094
    1DIPC   D2A10698   6.619  22.842   4.866 -0.1342 -0.1747 -0.0480
    1DIPC   D3A10699   6.617  22.833   4.446 -0.1105 -0.1751 -0.0213
    1DIPC   C4A10700   6.141  22.823   4.126 -0.0408 -0.2169  0.0248
    1DIPC   C1B10701   5.676  22.687   5.017 -0.1280  0.0420  0.0750
    1DIPC   D2B10702   5.501  22.295   4.850  0.1535  0.1456 -0.0841
    1DIPC   D3B10703   5.956  22.177   4.852 -0.2708 -0.0110 -0.3291
    1DIPC   C4B10704   6.389  22.288   4.688  0.4253 -0.0031  0.2646
    1DIPC   NC310705   2.983   6.105   6.805  0.0891  0.2664  0.1409
    1DIPC   PO410706   3.038   6.428   6.564  0.0291 -0.2819 -0.2671
    1DIPC   GL110707   3.173   6.201   6.186  0.1328 -0.0935 -0.2657
    1DIPC   GL210708   3.073   5.885   6.104  0.0239  0.0575  0.1551
    1DIPC   C1A10709   3.547   6.121   5.958  0.3281 -0.0322  0.2792
    1DIPC   D2A10710   4.025   6.061   6.042  0.0776 -0.3068  0.1421
    1DIPC   D3A10711   4.172   6.104   5.725  0.0027  0.0006  0.3227
    1DIPC   C4A10712   3.792   6.100   5.528  0.3462  0.0013  0.2344
    1DIPC   C1B10713   2.872   5.505   5.872  0.1969 -0.4472  0.0480
    1DIPC   D2B10714   2.660   5.255   5.537  0.1538 -0.2595  0.0607
    1DIPC   D3B10715   2.911   5.576   5.295 -0.1114  0.1604 -0.0588
    1DIPC   C4B10716   3.298   5.824   5.297  0.3946  0.1504  0.2685
    1DIPC   NC310717   7.625   5.771   6.347 -0.1158 -0.3684  0.0644
    1DIPC   PO410718   7.358   6.065   6.116  0.0605 -0.3007  0.0415
    1DIPC   GL110719   7.706   6.326   6.030 -0.1217  0.2188 -0.1112
    1DIPC   GL210720   7.652   6.745   6.053  0.0326  0.0913  0.1002
    1DIPC   C1A10721   7.916   6.500   5.727  0.1082  0.0150  0.2181
    1DIPC   D2A10722   8.289   6.478   5.411  0.2331 -0.0361 -0.0893
    1DIPC   D3A10723   8.243   6.214   5.089 -0.1267 -0.1803  0.2087
    1DIPC   C4A10724   7.955   6.046   4.800  0.1532  0.0718  0.4087
    1DIPC   C1B10725   7.699   7.184   5.790 -0.3727 -0.0298  0.0079
    1DIPC   D2B10726   7.499   7.468   5.639 -0.1649 -0.0373 -0.1268
    1DIPC   D3B10727   7.605   7.394   5.299  0.1825 -0.1065  0.0835
    1DIPC   C4B10728   7.462   7.012   5.059  0.0489  0.0113 -0.2470
    1DIPC   NC310729  10.952   1.343   7.487 -0.2460 -0.1598 -0.1191
    1DIPC   PO410730  10.909   1.470   7.122 -0.0097  0.0770  0.1334
    1DIPC   GL110731  10.883   1.477   6.686 -0.0474  0.0538  0.0949
    1DIPC   GL210732  10.974   1.209   6.631 -0.0754 -0.2441  0.0800
    1DIPC   C1A10733  10.882   1.447   6.177 -0.0232 -0.1615 -0.1357
    1DIPC   D2A10734  10.521   1.312   5.866 -0.0461  0.2554  0.1194
    1DIPC   D3A10735  10.380   1.426   5.427 -0.0181  0.0015 -0.0845
    1DIPC   C4A10736  10.142   1.118   5.154 -0.4002  0.3741 -0.0509
    1DIPC   C1B10737  11.080   1.004   6.289  0.2226 -0.0037  0.2494
    1DIPC   D2B10738  10.781   0.874   6.057 -0.0828  0.0274 -0.1993
    1DIPC   D3B10739  11.069   0.731   5.854 -0.1533 -0.4018 -0.0270
    1DIPC   C4B10740  11.102   1.130   5.674  0.2432 -0.0665  0.1213
    1DIPC   NC310741   0.169  12.986   7.142  0.1125  0.0890 -0.3394
    1DIPC   PO410742  29.680  13.161   6.846 -0.1274 -0.3277 -0.0287
    1DIPC   GL110743   0.008  13.150   6.503  0.4646  0.0759 -0.2057
    1DIPC   GL210744  29.705  12.919   6.346 -0.3602 -0.0670 -0.0071
    1DIPC   C1A10745   0.247  13.111   6.115 -0.1428  0.0678 -0.0296
    1DIPC   D2A10746   0.504  12.956   5.776 -0.0506 -0.1396  0.4180
    1DIPC   D3A10747   0.361  12.791   5.428  0.1788 -0.1223 -0.0226
    1DIPC   C4A10748   0.060  13.021   5.157  0.1235  0.0525  0.4240
    1DIPC   C1B10749  29.464  13.110   5.979  0.2112  0.1501 -0.1170
    1DIPC   D2B10750  29.567  13.383   5.595 -0.0532  0.0957 -0.2894
    1DIPC   D3B10751   0.079  13.222   5.635 -0.0629  0.1324  0.1267
    1DIPC   C4B10752   0.407  13.487   5.747  0.1031  0.2207 -0.2199
    1DIPC   NC310753   6.634   3.214   6.801 -0.2488 -0.2377 -0.0419
    1DIPC   PO410754   6.624   3.536   6.779  0.1425 -0.2485  0.0426
    1DIPC   GL110755   6.407   3.475   6.382 -0.1506 -0.0126  0.1547
    1DIPC   GL210756   6.450   3.175   6.147  0.2075  0.1236 -0.2619
    1DIPC   C1A10757   6.146   3.539   5.953  0.0096  0.4299 -0.3285
    1DIPC   D2A10758   5.729   3.725   5.795  0.0835  0.1571  0.0007
    1DIPC   D3A10759   6.120   3.797   5.471  0.0973 -0.0618  0.1093
    1DIPC   C4A10760   5.914   3.438   5.254  0.5361 -0.2048  0.0910
    1DIPC   C1B10761   6.336   2.856   5.898 -0.1174  0.1329 -0.0530
    1DIPC   D2B10762   6.279   2.538   5.563  0.0474  0.0861 -0.1274
    1DIPC   D3B10763   6.437   2.778   5.297  0.2421  0.0916  0.0663
    1DIPC   C4B10764   6.744   2.809   5.588  0.0724 -0.2240  0.2302
    1DIPC   NC310765   8.516   6.069   6.656  0.1862 -0.1467 -0.0914
    1DIPC   PO410766   8.338   5.649   6.840  0.2764 -0.0863  0.0130
    1DIPC   GL110767   8.391   5.757   6.323 -0.1767  0.1946 -0.3088
    1DIPC   GL210768   8.565   5.761   6.086 -0.0285  0.1154  0.2316
    1DIPC   C1A10769   8.191   5.972   5.877 -0.1588 -0.1501  0.2463
    1DIPC   D2A10770   7.747   6.028   5.663 -0.4564 -0.1528 -0.1126
    1DIPC   D3A10771   7.799   6.128   5.298 -0.2347 -0.2194  0.2015
    1DIPC   C4A10772   7.804   6.589   5.123 -0.0789 -0.0459 -0.2009
    1DIPC   C1B10773   8.543   5.595   5.602 -0.3516  0.0596 -0.0450
    1DIPC   D2B10774   8.824   5.516   5.294  0.0459  0.0533 -0.0835
    1DIPC   D3B10775   8.842   5.884   5.206  0.3321  0.1954 -0.0628
    1DIPC   C4B10776   8.622   6.153   5.586  0.0004  0.0419 -0.0696
    1DIPC   NC310777   8.899  21.471   6.274 -0.4211  0.2862 -0.0231
    1DIPC   PO410778   8.881  21.476   5.861  0.1395  0.1592 -0.2454
    1DIPC   GL110779   8.753  21.538   5.412  0.2883  0.2398  0.3156
    1DIPC   GL210780   8.466  21.754   5.393  0.0646 -0.3014 -0.0192
    1DIPC   C1A10781   8.892  21.400   4.957  0.0959 -0.2794 -0.0323
    1DIPC   D2A10782   8.795  21.100   4.616 -0.1352 -0.0255 -0.0232
    1DIPC   D3A10783   8.430  21.417   4.720  0.0822  0.3689 -0.2857
    1DIPC   C4A10784   8.089  21.403   4.389 -0.1318 -0.1632  0.0586
    1DIPC   C1B10785   8.062  21.715   5.166 -0.0252  0.2587 -0.0645
    1DIPC   D2B10786   7.755  21.939   4.881  0.0416 -0.0364 -0.0138
    1DIPC   D3B10787   7.802  21.805   4.467  0.2462  0.0765 -0.0813
    1DIPC   C4B10788   8.027  21.971   4.199  0.0210 -0.0546  0.4634
    1DIPC   NC310789   9.262  23.355   5.638  0.1704 -0.0009 -0.1521
    1DIPC   PO410790   8.932  23.749   5.735  0.1369  0.1332  0.0309
    1DIPC   GL110791   9.174  23.762   5.269 -0.2304 -0.1267 -0.0172
    1DIPC   GL210792   9.471  23.514   5.147 -0.1107  0.1595  0.1170
    1DIPC   C1A10793   9.226  23.952   4.910  0.1799  0.1839 -0.1977
    1DIPC   D2A10794   8.928  24.037   4.590  0.1088 -0.0601  0.3103
    1DIPC   D3A10795   9.380  23.877   4.399 -0.0290 -0.0410  0.0253
    1DIPC   C4A10796   9.619  24.111   4.019  0.1219  0.1542  0.0059
    1DIPC   C1B10797   9.384  23.215   4.757 -0.0789  0.1154 -0.0613
    1DIPC   D2B10798   9.507  23.359   4.322 -0.1959  0.0911  0.2730
    1DIPC   D3B10799   9.890  23.318   4.434  0.1258  0.1747 -0.0078
    1DIPC   C4B10800  10.202  23.098   4.157  0.5795  0.3310  0.2816
    1DIPC   NC310801   6.393  18.054   6.410 -0.1393 -0.1112 -0.0298
    1DIPC   PO410802   6.001  18.033   6.448 -0.3640  0.1431 -0.0743
    1DIPC   GL110803   6.022  17.986   5.991  0.0433  0.0580 -0.0219
    1DIPC   GL210804   5.734  17.859   5.856  0.2416 -0.0118  0.1058
    1DIPC   C1A10805   6.261  18.205   5.702  0.1743  0.1253 -0.0083
    1DIPC   D2A10806   6.515  18.571   5.689 -0.3269 -0.0816  0.0984
    1DIPC   D3A10807   6.220  18.498   5.293 -0.3184 -0.4731  0.1153
    1DIPC   C4A10808   5.967  18.773   5.182 -0.3743 -0.2284  0.2162
    1DIPC   C1B10809   5.456  17.508   5.613 -0.0577  0.0503  0.1138
    1DIPC   D2B10810   5.627  17.428   5.161 -0.0211  0.0232 -0.1990
    1DIPC   D3B10811   5.728  17.582   4.716 -0.2167 -0.1492 -0.2331
    1DIPC   C4B10812   5.918  17.934   4.414  0.5985 -0.1581 -0.2879
    1DIPC   NC310813  27.327  26.493   6.243  0.1266 -0.1902  0.0330
    1DIPC   PO410814  27.719  26.261   6.240 -0.0670 -0.1583 -0.1105
    1DIPC   GL110815  27.970  25.947   5.887  0.0165  0.0496  0.1426
    1DIPC   GL210816  27.784  25.762   5.810  0.2492  0.1908 -0.0309
    1DIPC   C1A10817  28.070  25.948   5.459  0.1193 -0.3389 -0.0427
    1DIPC   D2A10818  27.862  25.912   5.078  0.2714  0.3649  0.0130
    1DIPC   D3A10819  27.674  25.699   4.782  0.1816  0.0703  0.2309
    1DIPC   C4A10820  27.974  25.438   4.487 -0.0284 -0.1553 -0.2313
    1DIPC   C1B10821  27.581  26.082   5.462  0.1542  0.2157 -0.1234
    1DIPC   D2B10822  27.341  26.300   5.139 -0.0996 -0.1893 -0.0171
    1DIPC   D3B10823  27.332  26.047   4.822  0.0480  0.1728 -0.0869
    1DIPC   C4B10824  27.204  26.187   4.441 -0.1831  0.0345  0.1447
    1DIPC   NC310825  27.369   3.001   6.746 -0.1575 -0.0221 -0.3851
    1DIPC   PO410826  27.175   2.635   6.892  0.0592 -0.3067  0.2491
    1DIPC   GL110827  27.005   2.806   6.483  0.2289 -0.0962  0.3501
    1DIPC   GL210828  27.177   2.772   6.271  0.0100  0.0203  0.5841
    1DIPC   C1A10829  26.878   3.137   6.274 -0.1361  0.0403  0.0020
    1DIPC   D2A10830  26.545   3.449   6.025 -0.2071  0.2608 -0.0155
    1DIPC   D3A10831  26.401   3.121   5.626 -0.5669  0.1121  0.1738
    1DIPC   C4A10832  26.128   2.720   5.586 -0.1713 -0.0902  0.1028
    1DIPC   C1B10833  27.455   2.702   5.883 -0.2487  0.1409 -0.0100
    1DIPC   D2B10834  27.671   2.717   5.491 -0.2963 -0.1238 -0.1080
    1DIPC   D3B10835  27.403   2.468   5.141 -0.2703  0.3537  0.0809
    1DIPC   C4B10836  27.176   2.125   5.310 -0.1575  0.0089  0.2262
    1DIPC   NC310837   8.084   9.585   6.411 -0.0132 -0.0876  0.3235
    1DIPC   PO410838   7.896   9.157   6.416 -0.0814 -0.2480 -0.2509
    1DIPC   GL110839   7.671   9.157   6.089  0.2737 -0.0699 -0.1792
    1DIPC   GL210840   7.953   8.999   5.926 -0.1039 -0.1608 -0.1400
    1DIPC   C1A10841   7.524   8.824   5.860  0.0506  0.1005  0.1671
    1DIPC   D2A10842   7.369   8.828   5.389  0.2843 -0.0559 -0.2693
    1DIPC   D3A10843   7.118   9.186   5.423 -0.3967 -0.2623  0.2532
    1DIPC   C4A10844   6.827   9.410   5.363  0.1596  0.1869 -0.1067
    1DIPC   C1B10845   8.325   9.101   5.605  0.0073 -0.4298  0.0061
    1DIPC   D2B10846   8.320   9.063   5.188  0.1264 -0.0440  0.4139
    1DIPC   D3B10847   8.469   9.382   4.900  0.1790 -0.0048  0.0694
    1DIPC   C4B10848   8.252   9.654   4.683  0.1206 -0.3064 -0.2164
    1DIPC   NC310849  17.359  27.474   6.689  0.0641  0.1936 -0.3379
    1DIPC   PO410850  17.011  27.679   6.445  0.4079  0.1294 -0.0497
    1DIPC   GL110851  16.852  28.028   6.356 -0.1594  0.3655 -0.0601
    1DIPC   GL210852  17.084  28.133   6.625 -0.0260 -0.1016  0.0463
    1DIPC   C1A10853  16.527  28.416   6.325  0.1893  0.2145 -0.2692
    1DIPC   D2A10854  16.253  28.724   6.306 -0.0921  0.4683  0.0343
    1DIPC   D3A10855  16.233  28.988   5.980  0.0603 -0.0681  0.2495
    1DIPC   C4A10856  16.578  28.638   5.810  0.0121 -0.2758  0.1906
    1DIPC   C1B10857  17.069  28.449   6.309 -0.1471 -0.1846  0.0343
    1DIPC   D2B10858  17.075  28.556   5.881 -0.3281 -0.1955 -0.1735
    1DIPC   D3B10859  17.015  28.857   5.574 -0.2265 -0.0968  0.1658
    1DIPC   C4B10860  17.231  29.003   5.193 -0.0942 -0.0173 -0.0401
    1DIPC   NC310861   6.757   6.984   6.463 -0.2816  0.0745 -0.0371
    1DIPC   PO410862   6.747   6.646   6.132  0.0638  0.1390  0.1544
    1DIPC   GL110863   6.885   6.611   5.743  0.1824 -0.1801 -0.0509
    1DIPC   GL210864   7.182   6.457   5.860 -0.2315  0.2565  0.2848
    1DIPC   C1A10865   6.768   6.686   5.367 -0.1564 -0.0103  0.3695
    1DIPC   D2A10866   6.643   6.771   4.966 -0.1207 -0.2818  0.2152
    1DIPC   D3A10867   6.740   6.515   4.711  0.0344 -0.2284 -0.2677
    1DIPC   C4A10868   6.374   6.452   4.600 -0.0697  0.1173  0.0804
    1DIPC   C1B10869   6.909   6.125   5.561  0.1068  0.1477  0.4423
    1DIPC   D2B10870   6.873   5.747   5.403  0.1092  0.2025 -0.1243
    1DIPC   D3B10871   6.819   5.433   5.638 -0.0602  0.1139 -0.2884
    1DIPC   C4B10872   6.760   5.119   5.319  0.0908 -0.0150 -0.0831
    1DIPC   NC310873   5.834  14.842   6.957  0.1821 -0.0166 -0.1518
    1DIPC   PO410874   5.836  14.835   6.410  0.2561 -0.3103 -0.1214
    1DIPC   GL110875   5.554  14.772   6.038  0.1133 -0.1829 -0.1105
    1DIPC   GL210876   5.744  14.804   5.776 -0.2157  0.1067  0.2486
    1DIPC   C1A10877   5.553  14.345   5.700 -0.0401 -0.0907 -0.1693
    1DIPC   D2A10878   5.632  14.149   5.285  0.0009 -0.0647 -0.0660
    1DIPC   D3A10879   5.640  14.152   4.851 -0.1134 -0.2778 -0.3326
    1DIPC   C4A10880   5.790  13.884   4.583  0.0641  0.0540 -0.0380
    1DIPC   C1B10881   5.597  14.904   5.363  0.0305 -0.1432  0.2196
    1DIPC   D2B10882   5.553  15.281   5.081  0.0877 -0.2460 -0.0207
    1DIPC   D3B10883   5.258  14.989   4.990 -0.2410  0.2225  0.0620
    1DIPC   C4B10884   5.263  14.569   5.284 -0.5782 -0.0273 -0.1981
    1DIPC   NC310885  24.115  20.939   6.745 -0.0750 -0.0493  0.1321
    1DIPC   PO410886  24.523  20.613   6.599  0.4500 -0.0149 -0.1534
    1DIPC   GL110887  24.289  20.844   6.188  0.2106  0.2119  0.3455
    1DIPC   GL210888  24.061  20.986   6.271 -0.0507 -0.1124  0.3520
    1DIPC   C1A10889  24.193  20.833   5.791  0.0362 -0.2732 -0.1812
    1DIPC   D2A10890  24.499  21.134   5.615  0.4034 -0.0903 -0.2446
    1DIPC   D3A10891  24.566  20.811   5.341 -0.1083 -0.3026  0.3119
    1DIPC   C4A10892  24.509  20.938   4.949 -0.1784  0.1654  0.0386
    1DIPC   C1B10893  23.812  20.704   6.106  0.0593  0.2427  0.3006
    1DIPC   D2B10894  23.940  20.362   5.912  0.2040  0.0069  0.0334
    1DIPC   D3B10895  23.517  20.461   5.696  0.2974  0.1088 -0.3464
    1DIPC   C4B10896  23.510  20.444   5.276 -0.0929 -0.1186 -0.0779
    1DIPC   NC310897   1.340   1.893   6.292  0.0145 -0.1045 -0.1683
    1DIPC   PO410898   1.069   1.531   6.267  0.0074 -0.0472  0.0192
    1DIPC   GL110899   1.180   1.618   5.821 -0.2995 -0.1104  0.3162
    1DIPC   GL210900   0.942   1.387   5.538 -0.2117 -0.0410  0.0175
    1DIPC   C1A10901   1.391   1.562   5.360 -0.1966  0.0574 -0.0701
    1DIPC   D2A10902   1.627   1.355   5.024  0.1068 -0.0439 -0.0747
    1DIPC   D3A10903   1.366   1.471   4.719  0.2320  0.1802 -0.0829
    1DIPC   C4A10904   1.645   1.342   4.320  0.0318  0.0291 -0.1850
    1DIPC   C1B10905   0.930   1.419   5.118  0.0070 -0.1262  0.0263
    1DIPC   D2B10906   0.824   1.151   4.729  0.3835 -0.5008  0.1322
    1DIPC   D3B10907   1.320   1.000   4.819 -0.0440  0.2656  0.3433
    1DIPC   C4B10908   1.361   0.519   4.948  0.0865 -0.0706 -0.1210
    1DIPC   NC310909  13.310  10.774   6.883  0.1020  0.2107 -0.2665
    1DIPC   PO410910  13.741  10.501   6.970 -0.3199  0.1457  0.1450
    1DIPC   GL110911  13.601  10.300   6.593 -0.2542 -0.0655  0.2514
    1DIPC   GL210912  13.357  10.059   6.605 -0.0549  0.2773 -0.0373
    1DIPC   C1A10913  13.706  10.209   6.133  0.1179  0.1452  0.2219
    1DIPC   D2A10914  13.649   9.906   5.812  0.1293  0.0574  0.0527
    1DIPC   D3A10915  13.978   9.675   5.592 -0.3571 -0.1238 -0.3304
    1DIPC   C4A10916  14.207   9.541   5.279 -0.0099  0.0723  0.1846
    1DIPC   C1B10917  13.496   9.736   6.285 -0.1380  0.2913 -0.4709
    1DIPC   D2B10918  13.306   9.549   6.021  0.0218  0.2762  0.1252
    1DIPC   D3B10919  13.361   9.174   6.149  0.2783  0.3551 -0.0188
    1DIPC   C4B10920  13.413   8.969   6.615  0.1201 -0.1647  0.0817
    1DIPC   NC310921   6.349  25.986   5.749 -0.2999  0.0185  0.2858
    1DIPC   PO410922   6.231  25.444   5.733 -0.0553 -0.0960  0.0621
    1DIPC   GL110923   6.283  25.587   5.339  0.0013  0.0454  0.0040
    1DIPC   GL210924   6.694  25.631   5.236  0.1979 -0.1012 -0.2758
    1DIPC   C1A10925   6.335  25.358   5.063 -0.1795  0.1652  0.0264
    1DIPC   D2A10926   6.468  25.329   4.627 -0.1178 -0.2939  0.1581
    1DIPC   D3A10927   6.229  24.929   4.332 -0.0431 -0.1130  0.0612
    1DIPC   C4A10928   6.247  24.523   4.253  0.1764 -0.0073  0.2465
    1DIPC   C1B10929   6.608  25.801   4.761  0.0191 -0.0342 -0.3241
    1DIPC   D2B10930   6.809  26.134   4.579  0.2837  0.0065 -0.1054
    1DIPC   D3B10931   6.742  26.633   4.707  0.0526 -0.0122 -0.0196
    1DIPC   C4B10932   6.492  27.000   4.400 -0.0094 -0.1819  0.0632
    1DIPC   NC310933   0.027  15.563   6.419 -0.0020  0.0123  0.1409
    1DIPC   PO410934  29.513  15.373   6.328  0.0758  0.1617 -0.5542
    1DIPC   GL110935  29.637  15.038   5.949  0.1268 -0.0200 -0.4957
    1DIPC   GL210936   0.178  14.951   5.918 -0.2270 -0.0543 -0.2152
    1DIPC   C1A10937  29.724  15.009   5.565  0.3497  0.2223 -0.0147
    1DIPC   D2A10938  29.756  15.030   5.082  0.0308 -0.1043  0.3735
    1DIPC   D3A10939  29.630  15.440   5.174  0.3257  0.0954  0.1839
    1DIPC   C4A10940   0.033  15.722   4.817  0.0623  0.0999  0.1982
    1DIPC   C1B10941   0.256  14.817   5.426  0.0193  0.3056 -0.1674
    1DIPC   D2B10942   0.195  14.612   5.050  0.0750  0.1155 -0.1130
    1DIPC   D3B10943   0.424  14.272   4.905  0.0784  0.0906 -0.0415
    1DIPC   C4B10944   0.624  13.894   5.106  0.1994 -0.0618 -0.2259
    1DIPC   NC310945  25.357  25.917   6.710 -0.3307  0.1251  0.1376
    1DIPC   PO410946  25.120  26.162   6.428 -0.1176  0.1835  0.0947
    1DIPC   GL110947  25.249  26.084   5.964  0.2491  0.2225 -0.0053
    1DIPC   GL210948  25.504  26.136   6.029  0.1193  0.0217  0.1906
    1DIPC   C1A10949  25.281  26.218   5.554  0.1050  0.1769 -0.0444
    1DIPC   D2A10950  25.455  26.404   5.300  0.1162  0.1164 -0.4196
    1DIPC   D3A10951  25.621  26.336   4.832 -0.0225  0.4402 -0.2991
    1DIPC   C4A10952  25.702  26.713   4.592 -0.0800  0.0169  0.4183
    1DIPC   C1B10953  25.574  25.810   5.669  0.2178  0.2350  0.0982
    1DIPC   D2B10954  25.669  25.908   5.180  0.2302  0.1218 -0.0565
    1DIPC   D3B10955  25.528  25.749   4.790  0.1756 -0.1126 -0.1917
    1DIPC   C4B10956  25.063  25.661   4.731 -0.2553  0.0402  0.2020
    1DIPC   NC310957  10.052   6.033   7.161 -0.0891  0.0920  0.0073
    1DIPC   PO410958  10.221   6.295   7.199  0.0259  0.1872 -0.1833
    1DIPC   GL110959  10.565   6.140   6.928  0.1139  0.5590 -0.0346
    1DIPC   GL210960  10.864   6.273   6.825  0.0645 -0.1234 -0.0021
    1DIPC   C1A10961  10.591   5.816   6.545 -0.0331  0.0840 -0.0287
    1DIPC   D2A10962  10.415   5.816   6.127 -0.0586 -0.0184  0.0173
    1DIPC   D3A10963  10.349   5.396   5.960  0.0955  0.1613 -0.0912
    1DIPC   C4A10964   9.979   5.238   5.945  0.0181 -0.0523 -0.4314
    1DIPC   C1B10965  10.690   6.639   6.657  0.1497 -0.1801  0.3822
    1DIPC   D2B10966  10.630   7.027   6.415  0.1769 -0.2847 -0.0794
    1DIPC   D3B10967  10.353   6.800   6.235  0.0984 -0.0203 -0.1148
    1DIPC   C4B10968  10.070   6.955   6.009 -0.0379  0.0054 -0.1204
    1DIPC   NC310969   8.825  16.124   6.229 -0.0504 -0.1107  0.0530
    1DIPC   PO410970   8.990  16.511   6.299 -0.0969 -0.0576 -0.4121
    1DIPC   GL110971   9.074  16.524   5.941  0.0153  0.0368  0.1590
    1DIPC   GL210972   8.911  16.725   5.823  0.0483  0.1330  0.0188
    1DIPC   C1A10973   9.326  16.150   5.616  0.0870  0.1614 -0.1959
    1DIPC   D2A10974   9.336  15.655   5.511  0.1339  0.3163  0.2031
    1DIPC   D3A10975   9.761  15.536   5.439 -0.0365  0.1651 -0.0699
    1DIPC   C4A10976   9.945  15.261   5.061 -0.0050 -0.0906  0.2776
    1DIPC   C1B10977   8.707  16.291   5.519 -0.0318 -0.0510 -0.0163
    1DIPC   D2B10978   8.589  16.217   5.122  0.2000  0.0498  0.0083
    1DIPC   D3B10979   8.374  16.127   4.689 -0.0488  0.0465  0.1022
    1DIPC   C4B10980   8.400  15.848   4.393  0.1797  0.2340  0.1421
    1DIPC   NC310981  27.412  25.608   6.467 -0.1434  0.0058 -0.0218
    1DIPC   PO410982  27.123  25.292   6.361  0.1676  0.1852  0.3489
    1DIPC   GL110983  27.261  25.237   5.886  0.2205 -0.0246  0.0199
    1DIPC   GL210984  27.213  24.845   5.748  0.0506 -0.2677 -0.2143
    1DIPC   C1A10985  27.644  25.319   5.617  0.1641 -0.2162 -0.0899
    1DIPC   D2A10986  27.943  25.515   5.429 -0.1756  0.0262 -0.0253
    1DIPC   D3A10987  28.236  25.223   5.309 -0.3533 -0.1369 -0.1865
    1DIPC   C4A10988  28.178  25.075   4.968 -0.0303  0.0545 -0.0332
    1DIPC   C1B10989  27.276  25.061   5.373  0.1017  0.0036 -0.1741
    1DIPC   D2B10990  27.171  25.265   5.016  0.0330  0.0505  0.1192
    1DIPC   D3B10991  27.369  25.630   5.191 -0.2036 -0.0043  0.0515
    1DIPC   C4B10992  27.280  25.637   5.601  0.1481  0.0953 -0.1717
    1DIPC   NC310993  28.187   5.385   6.859  0.1576 -0.0946  0.1325
    1DIPC   PO410994  28.022   4.859   6.800  0.0455  0.2471 -0.2372
    1DIPC   GL110995  27.962   5.130   6.455 -0.3346  0.1054  0.0767
    1DIPC   GL210996  27.802   5.354   6.446  0.1382  0.1667  0.0713
    1DIPC   C1A10997  27.961   5.030   6.035 -0.1203  0.2001  0.0974
    1DIPC   D2A10998  28.171   4.958   5.652  0.1069  0.3092  0.1513
    1DIPC   D3A10999  28.152   5.048   5.209 -0.2410 -0.0746  0.2747
    1DIPC   C4A11000  28.041   4.717   4.921 -0.1466 -0.1677 -0.3423
    1DIPC   C1B11001  27.527   5.501   6.077  0.0506 -0.0177  0.0629
    1DIPC   D2B11002  27.318   5.480   5.728  0.0758  0.1779  0.0367
    1DIPC   D3B11003  27.655   5.742   5.662 -0.0136 -0.4016  0.3740
    1DIPC   C4B11004  27.626   6.082   5.876 -0.0012  0.0492 -0.0867
    1DIPC   NC311005  17.677   0.683   8.156 -0.3127  0.0145  0.1176
    1DIPC   PO411006  17.889   0.690   7.691 -0.1638 -0.0574 -0.2136
    1DIPC   GL111007  17.914   0.451   7.329 -0.2159 -0.1042 -0.1532
    1DIPC   GL211008  18.117   0.307   7.400  0.0222  0.0904  0.2880
    1DIPC   C1A11009  18.038   0.338   6.861 -0.1469  0.2348 -0.1195
    1DIPC   D2A11010  18.193   0.513   6.465 -0.0759 -0.3793 -0.3118
    1DIPC   D3A11011  18.013   0.072   6.256  0.1636 -0.1545  0.0248
    1DIPC   C4A11012  17.920  29.843   5.839  0.2371 -0.0303 -0.1048
    1DIPC   C1B11013  17.944  29.782   7.156 -0.0022  0.1586 -0.1356
    1DIPC   D2B11014  18.119  29.682   6.758  0.0151  0.1901  0.0758
    1DIPC   D3B11015  18.168  29.446   6.454 -0.0894  0.4940  0.2859
    1DIPC   C4B11016  18.208  29.369   6.139  0.0600  0.1649  0.1877
    1DIPC   NC311017   3.669  20.563   6.755  0.1436  0.2571 -0.1391
    1DIPC   PO411018   3.291  20.350   6.514  0.0004  0.1150 -0.3702
    1DIPC   GL111019   3.285  20.472   6.014  0.0257 -0.1739 -0.1192
    1DIPC   GL211020   3.139  20.593   5.785 -0.3183  0.1374 -0.1359
    1DIPC   C1A11021   3.656  20.431   5.748 -0.1411 -0.0581  0.1186
    1DIPC   D2A11022   3.758  20.534   5.347 -0.0579 -0.1851  0.0806
    1DIPC   D3A11023   3.560  20.380   5.053 -0.3700  0.0637  0.1144
    1DIPC   C4A11024   3.660  19.961   5.021 -0.2042  0.0781 -0.1372
    1DIPC   C1B11025   3.210  20.526   5.355 -0.0707  0.1689  0.0588
    1DIPC   D2B11026   3.053  20.487   4.886 -0.2791  0.0319  0.2168
    1DIPC   D3B11027   2.785  20.170   4.686 -0.2028 -0.1355 -0.0170
    1DIPC   C4B11028   2.392  19.918   5.029  0.2118 -0.0327 -0.0695
    1DIPC   NC311029   9.376  18.657   6.340  0.0224  0.1131 -0.3911
    1DIPC   PO411030   9.592  18.964   6.088 -0.1588  0.2345  0.0208
    1DIPC   GL111031   9.618  19.091   5.709 -0.3480  0.3550  0.0244
    1DIPC   GL211032   9.507  19.396   5.708 -0.0702  0.0317  0.1860
    1DIPC   C1A11033   9.720  18.820   5.488  0.1108 -0.1078  0.2419
    1DIPC   D2A11034   9.703  18.356   5.395  0.0487 -0.0222 -0.0352
    1DIPC   D3A11035   9.643  18.370   5.025  0.1507 -0.1108 -0.2966
    1DIPC   C4A11036   9.379  18.732   5.093 -0.1832 -0.1162 -0.1328
    1DIPC   C1B11037   9.301  19.227   5.376 -0.1226  0.1746  0.1471
    1DIPC   D2B11038   9.117  19.186   5.021 -0.0309  0.1037  0.1582
    1DIPC   D3B11039   8.884  18.827   4.782 -0.0523  0.0745  0.0902
    1DIPC   C4B11040   9.166  18.710   4.511  0.3277 -0.0884 -0.2800
    1DIPC   NC311041   1.289  25.342   5.810 -0.2535 -0.1496 -0.0540
    1DIPC   PO411042   1.245  24.986   5.743 -0.3283 -0.2689 -0.1829
    1DIPC   GL111043   0.985  24.616   5.468 -0.1903 -0.2085  0.1117
    1DIPC   GL211044   0.607  24.738   5.562  0.2418  0.1061 -0.3445
    1DIPC   C1A11045   0.802  24.436   5.081 -0.1196  0.2877 -0.4392
    1DIPC   D2A11046   0.679  24.240   4.773 -0.0718 -0.3034 -0.3704
    1DIPC   D3A11047   1.015  24.092   4.479  0.1469  0.1315 -0.2161
    1DIPC   C4A11048   1.408  24.161   4.614 -0.3644 -0.1359  0.2295
    1DIPC   C1B11049   0.343  24.807   5.191 -0.0351  0.1121 -0.1446
    1DIPC   D2B11050   0.245  24.508   4.908  0.0889  0.1331  0.1566
    1DIPC   D3B11051  29.748  24.641   4.586  0.1791  0.4002 -0.0662
    1DIPC   C4B11052  29.688  24.920   4.252 -0.0322  0.0360 -0.0438
    1DIPC   NC311053   4.748  28.851   5.947  0.0587 -0.2206 -0.2072
    1DIPC   PO411054   4.784  29.299   5.966  0.2130  0.0690  0.1407
    1DIPC   GL111055   4.804  29.203   5.570 -0.2099  0.3197  0.0009
    1DIPC   GL211056   4.469  29.063   5.615 -0.0630  0.0567  0.0071
    1DIPC   C1A11057   4.868  29.113   5.189  0.0350  0.0530  0.0604
    1DIPC   D2A11058   4.882  29.403   4.866  0.0176 -0.1477  0.1666
    1DIPC   D3A11059   5.016  29.268   4.465 -0.1621 -0.1347  0.0220
    1DIPC   C4A11060   5.346  28.939   4.443 -0.0824 -0.1283  0.3422
    1DIPC   C1B11061   4.143  29.251   5.553  0.0300 -0.1129 -0.3522
    1DIPC   D2B11062   3.745  29.398   5.843  0.0091  0.0960  0.0310
    1DIPC   D3B11063   3.347  29.537   5.708  0.1935  0.1604 -0.2089
    1DIPC   C4B11064   3.072  29.227   5.606 -0.0235  0.0108 -0.1503
    1DIPC   NC311065  27.497  26.768   6.668 -0.3589 -0.6008  0.2798
    1DIPC   PO411066  27.311  27.092   6.223 -0.2046 -0.1641  0.0173
    1DIPC   GL111067  27.257  26.800   5.883  0.0465 -0.1042  0.3893
    1DIPC   GL211068  27.163  27.011   5.607 -0.0471  0.1781  0.2046
    1DIPC   C1A11069  27.142  26.371   5.637 -0.0141  0.1958  0.0833
    1DIPC   D2A11070  27.030  26.000   5.439 -0.3563 -0.0143  0.1505
    1DIPC   D3A11071  26.807  25.784   5.067  0.6887 -0.2990  0.0277
    1DIPC   C4A11072  26.971  25.711   4.647 -0.0545 -0.0560  0.0901
    1DIPC   C1B11073  27.306  27.130   5.288 -0.0808 -0.2359 -0.1294
    1DIPC   D2B11074  27.041  27.166   4.862 -0.1307  0.0228  0.1201
    1DIPC   D3B11075  27.123  27.473   4.574 -0.1572 -0.1045  0.2184
    1DIPC   C4B11076  27.142  27.922   4.754  0.1837  0.0139  0.0049
    1DIPC   NC311077   2.766   0.705   6.395 -0.1974 -0.0050 -0.0469
    1DIPC   PO411078   2.813   1.077   6.242 -0.2532  0.4223 -0.0470
    1DIPC   GL111079   2.872   0.887   5.904  0.2552 -0.0896  0.0684
    1DIPC   GL211080   2.662   1.011   5.755  0.1935  0.2353 -0.2169
    1DIPC   C1A11081   3.136   0.847   5.571  0.0638 -0.0636 -0.0493
    1DIPC   D2A11082   3.469   0.710   5.305 -0.1155 -0.0272 -0.0026
    1DIPC   D3A11083   3.252   0.415   4.978 -0.0956  0.2064 -0.2725
    1DIPC   C4A11084   3.039   0.589   4.561 -0.0081  0.0967  0.2418
    1DIPC   C1B11085   2.890   1.267   5.492  0.0161  0.1711 -0.0579
    1DIPC   D2B11086   3.266   1.563   5.382 -0.0391 -0.2546  0.0283
    1DIPC   D3B11087   3.398   1.194   5.242  0.0926  0.2850  0.1356
    1DIPC   C4B11088   3.137   0.879   4.991 -0.1803 -0.2112 -0.2610
    1DIPC   NC311089  24.420  19.049   6.192  0.1398 -0.6576  0.1072
    1DIPC   PO411090  24.337  19.422   6.199  0.0352  0.0876 -0.0426
    1DIPC   GL111091  24.341  19.602   5.794 -0.0974  0.0862  0.0701
    1DIPC   GL211092  24.180  19.838   5.646  0.2083 -0.0807 -0.1843
    1DIPC   C1A11093  24.514  19.550   5.356 -0.2132  0.0823 -0.1239
    1DIPC   D2A11094  24.902  19.641   5.124 -0.1084  0.0269  0.1810
    1DIPC   D3A11095  24.667  19.522   4.754  0.3300  0.5677  0.0503
    1DIPC   C4A11096  24.384  19.757   4.519 -0.0844 -0.1571 -0.2370
    1DIPC   C1B11097  23.873  20.057   5.410  0.0476  0.3416  0.1039
    1DIPC   D2B11098  23.770  20.122   4.965 -0.0171 -0.0191  0.1114
    1DIPC   D3B11099  23.905  19.945   4.545 -0.0299 -0.0453 -0.1063
    1DIPC   C4B11100  23.999  19.435   4.514 -0.1696  0.0129  0.2881
    1DIPC   NC311101  16.814  21.553   5.451  0.4486  0.2048  0.1784
    1DIPC   PO411102  16.592  21.781   5.217  0.0275 -0.2855  0.1913
    1DIPC   GL111103  16.538  21.617   4.902 -0.1834  0.1350  0.0435
    1DIPC   GL211104  16.520  21.318   4.809 -0.1020 -0.2272  0.1453
    1DIPC   C1A11105  16.529  21.656   4.462  0.0654 -0.1426  0.0028
    1DIPC   D2A11106  16.483  21.703   4.131  0.0611 -0.1806  0.1790
    1DIPC   D3A11107  16.358  21.241   4.160  0.3359 -0.0117  0.0361
    1DIPC   C4A11108  16.514  20.876   4.472  0.0101  0.0878  0.0418
    1DIPC   C1B11109  16.961  21.359   4.645 -0.0573 -0.0789  0.2463
    1DIPC   D2B11110  17.191  20.937   4.706 -0.1006  0.0675  0.1619
    1DIPC   D3B11111  17.012  20.977   4.322 -0.1816  0.0770 -0.0424
    1DIPC   C4B11112  16.857  21.385   4.120  0.1328  0.1421 -0.0310
    1DIPC   NC311113   9.720  27.965   6.256 -0.0037 -0.1025 -0.0121
    1DIPC   PO411114   9.228  28.066   6.174 -0.3265  0.1596 -0.0389
    1DIPC   GL111115   9.090  27.820   5.824 -0.1334  0.0205  0.1534
    1DIPC   GL211116   8.924  27.527   5.804  0.1196  0.2794 -0.1556
    1DIPC   C1A11117   9.007  27.856   5.407 -0.0071 -0.0213  0.7130
    1DIPC   D2A11118   9.089  27.700   5.051 -0.0763 -0.3369  0.0235
    1DIPC   D3A11119   8.994  28.157   4.910 -0.6994  0.0444 -0.0080
    1DIPC   C4A11120   8.629  28.379   4.883 -0.2587  0.1122  0.1796
    1DIPC   C1B11121   8.875  27.322   5.415 -0.0833 -0.4036  0.0132
    1DIPC   D2B11122   8.637  27.456   5.044 -0.1884 -0.2160  0.2303
    1DIPC   D3B11123   9.011  27.372   4.766  0.0120  0.4158 -0.1324
    1DIPC   C4B11124   8.992  27.030   4.415  0.0976  0.0270 -0.1224
    1DIPC   NC311125  29.346   0.213   6.307  0.0523  0.1155 -0.0386
    1DIPC   PO411126  29.533  29.752   6.077  0.0485 -0.4012  0.1635
    1DIPC   GL111127  29.664   0.025   5.741 -0.0145 -0.1398  0.1271
    1DIPC   GL211128  29.502   0.400   5.630 -0.0186  0.1644 -0.0678
    1DIPC   C1A11129   0.117   0.246   5.440  0.2584 -0.0155  0.2846
    1DIPC   D2A11130   0.252   0.476   5.058  0.1018 -0.0071  0.0681
    1DIPC   D3A11131   0.318   0.215   4.752 -0.1692  0.0742 -0.1553
    1DIPC   C4A11132   0.479   0.337   4.388 -0.0625 -0.3284 -0.1285
    1DIPC   C1B11133  29.468   0.854   5.600 -0.0889 -0.0293  0.2189
    1DIPC   D2B11134  29.368   1.261   5.632  0.2105 -0.1899 -0.2053
    1DIPC   D3B11135  28.962   1.384   5.679 -0.0481 -0.1320  0.2669
    1DIPC   C4B11136  28.609   1.406   5.452 -0.2029  0.1203  0.1093
    1DIPC   NC311137  29.557   8.950   6.678  0.1906  0.1791  0.0502
    1DIPC   PO411138  29.484   9.101   6.245 -0.1146 -0.1572 -0.0473
    1DIPC   GL111139  29.546   8.970   5.818 -0.1945  0.1435 -0.2242
    1DIPC   GL211140  29.447   8.696   5.764  0.0247 -0.0477 -0.0844
    1DIPC   C1A11141   0.041   8.545   5.837  0.1746 -0.0936  0.0420
    1DIPC   D2A11142   0.382   8.328   5.795 -0.1800 -0.3561 -0.0524
    1DIPC   D3A11143   0.025   8.055   5.783 -0.1698  0.1626  0.1547
    1DIPC   C4A11144  29.745   7.835   5.478 -0.0362 -0.0275 -0.3033
    1DIPC   C1B11145  29.358   8.672   5.347  0.0793  0.2301 -0.0750
    1DIPC   D2B11146  29.549   8.591   4.940  0.1715  0.1863 -0.1612
    1DIPC   D3B11147   0.041   8.359   5.143  0.0063  0.2384  0.2090
    1DIPC   C4B11148   0.314   8.592   5.381  0.0308  0.1603 -0.1951
    1DIPC   NC311149   3.213  26.630   5.921  0.1667 -0.0655 -0.2540
    1DIPC   PO411150   3.026  26.723   5.542  0.0561 -0.2626 -0.4985
    1DIPC   GL111151   3.157  26.572   5.135  0.0318 -0.0574  0.4068
    1DIPC   GL211152   3.407  26.652   4.969  0.2125 -0.1426 -0.1529
    1DIPC   C1A11153   3.031  26.519   4.602  0.0528 -0.0841 -0.0750
    1DIPC   D2A11154   3.107  26.307   4.181  0.3488 -0.0000  0.1131
    1DIPC   D3A11155   2.767  25.997   4.110  0.1001 -0.1869  0.2085
    1DIPC   C4A11156   2.858  25.597   4.266  0.1565  0.0587 -0.3046
    1DIPC   C1B11157   3.515  26.607   4.581  0.3473  0.0369  0.1679
    1DIPC   D2B11158   3.564  26.485   4.114  0.2185 -0.0945 -0.2176
    1DIPC   D3B11159   3.933  26.526   3.920 -0.1769 -0.1724  0.1231
    1DIPC   C4B11160   4.029  26.180   3.687 -0.0903  0.0748  0.0993
    1DIPC   NC311161  14.106  28.457   6.985  0.1748  0.1237  0.0879
    1DIPC   PO411162  13.879  28.275   6.820  0.0965 -0.2086 -0.0144
    1DIPC   GL111163  14.058  28.673   6.508 -0.1100 -0.0233 -0.0742
    1DIPC   GL211164  13.750  28.876   6.317 -0.2317  0.3570  0.0700
    1DIPC   C1A11165  14.317  28.702   6.148 -0.0807  0.1198  0.2365
    1DIPC   D2A11166  14.380  28.908   5.755 -0.1410 -0.0672  0.3075
    1DIPC   D3A11167  14.791  29.119   5.604 -0.0889  0.2962  0.0208
    1DIPC   C4A11168  15.122  29.360   5.848 -0.0088  0.1704  0.2336
    1DIPC   C1B11169  13.606  29.106   5.911  0.2690  0.0539 -0.0275
    1DIPC   D2B11170  13.528  28.840   5.578  0.2855  0.0749 -0.0360
    1DIPC   D3B11171  13.764  29.204   5.354  0.3365  0.1450  0.0234
    1DIPC   C4B11172  13.755  29.556   5.048  0.1183  0.1396 -0.1284
    1DIPC   NC311173  25.963  11.891   7.095 -0.0753  0.2141 -0.0185
    1DIPC   PO411174  25.465  11.844   7.279 -0.0888  0.1069 -0.0146
    1DIPC   GL111175  25.406  12.058   6.944  0.0487  0.2885  0.2687
    1DIPC   GL211176  25.228  12.027   6.888 -0.0710  0.2475 -0.0762
    1DIPC   C1A11177  25.491  12.127   6.473  0.1107 -0.1599  0.0624
    1DIPC   D2A11178  25.408  11.895   6.170 -0.0006 -0.0032  0.2749
    1DIPC   D3A11179  25.563  11.947   5.722  0.0534 -0.1230  0.1661
    1DIPC   C4A11180  25.331  11.546   5.554 -0.1475 -0.2971  0.0791
    1DIPC   C1B11181  25.265  11.700   6.564 -0.0482  0.1939 -0.3773
    1DIPC   D2B11182  25.257  11.315   6.515 -0.5683  0.0468  0.0305
    1DIPC   D3B11183  25.230  11.418   6.075 -0.1546  0.2332 -0.0227
    1DIPC   C4B11184  25.279  11.114   5.721  0.1301  0.2159 -0.1770
    1DIPC   NC311185  25.632   1.319   7.173  0.1581  0.0835  0.2106
    1DIPC   PO411186  25.402   1.700   7.154  0.1080 -0.1946  0.0099
    1DIPC   GL111187  25.686   1.749   6.839  0.1470  0.0583  0.1203
    1DIPC   GL211188  25.786   2.119   6.704  0.0910  0.0768  0.0623
    1DIPC   C1A11189  25.672   1.569   6.393  0.0702  0.1496  0.0257
    1DIPC   D2A11190  26.024   1.424   6.321 -0.1450 -0.0789  0.3242
    1DIPC   D3A11191  25.935   1.489   5.794 -0.0883  0.0603 -0.1270
    1DIPC   C4A11192  26.076   1.349   5.348 -0.0635  0.1177  0.3256
    1DIPC   C1B11193  25.810   2.019   6.374  0.1435 -0.2452 -0.0389
    1DIPC   D2B11194  26.102   1.892   6.058 -0.1369  0.2368  0.1185
    1DIPC   D3B11195  25.666   1.910   5.902  0.1203  0.1773 -0.1916
    1DIPC   C4B11196  25.309   2.107   5.683 -0.1780 -0.2883  0.0545
    1DIPC   NC311197   2.201  15.665   6.782 -0.0158  0.0083 -0.1134
    1DIPC   PO411198   2.282  15.250   6.835  0.0562  0.2733  0.2896
    1DIPC   GL111199   2.231  15.164   6.394 -0.1127 -0.0459 -0.2259
    1DIPC   GL211200   2.241  14.789   6.287 -0.1891  0.1365  0.1572
    1DIPC   C1A11201   2.189  15.211   5.980  0.2801 -0.3457 -0.1053
    1DIPC   D2A11202   1.868  15.093   5.662 -0.0877 -0.0840  0.2646
    1DIPC   D3A11203   2.098  15.212   5.324  0.2262 -0.3758 -0.0841
    1DIPC   C4A11204   2.095  14.925   4.834  0.0620  0.2702 -0.3438
    1DIPC   C1B11205   2.191  14.657   5.829  0.0979 -0.0420 -0.2165
    1DIPC   D2B11206   2.124  14.633   5.315 -0.2940  0.1998 -0.0389
    1DIPC   D3B11207   1.992  14.326   5.059  0.2853  0.0610  0.1676
    1DIPC   C4B11208   2.029  13.981   5.075  0.0629  0.0164 -0.2252
    1DIPC   NC311209  17.830  23.875   5.527  0.2734 -0.2368 -0.0478
    1DIPC   PO411210  17.990  23.424   5.620  0.0435 -0.2644 -0.2281
    1DIPC   GL111211  18.282  23.421   5.211 -0.0187  0.0390 -0.0394
    1DIPC   GL211212  18.490  23.198   5.369 -0.1161  0.0149 -0.0098
    1DIPC   C1A11213  18.290  23.432   4.795 -0.1038 -0.0676  0.0577
    1DIPC   D2A11214  18.106  23.764   4.538 -0.3536 -0.3746 -0.2970
    1DIPC   D3A11215  18.284  23.846   4.138  0.2283 -0.0296  0.1117
    1DIPC   C4A11216  18.236  23.502   3.799  0.1220 -0.1320 -0.0375
    1DIPC   C1B11217  18.685  23.152   4.950  0.0721  0.1189 -0.0362
    1DIPC   D2B11218  18.798  23.236   4.541 -0.0709 -0.1117 -0.0785
    1DIPC   D3B11219  18.494  23.298   4.237 -0.0933 -0.0285  0.2451
    1DIPC   C4B11220  18.118  23.040   4.152 -0.1084  0.0080 -0.0312
    1DIPC   NC311221  23.333  19.783   6.767 -0.1554  0.1599 -0.2701
    1DIPC   PO411222  23.521  20.222   6.842  0.1809 -0.0564  0.0822
    1DIPC   GL111223  23.398  20.191   6.388 -0.0806 -0.0753 -0.2207
    1DIPC   GL211224  23.669  20.151   6.290  0.3114  0.2598  0.3085
    1DIPC   C1A11225  23.120  20.302   6.002  0.3563 -0.1020  0.2041
    1DIPC   D2A11226  22.905  20.725   5.790  0.3379  0.0340 -0.1794
    1DIPC   D3A11227  23.104  20.703   5.415  0.0664  0.0995 -0.0976
    1DIPC   C4A11228  23.125  21.122   5.390  0.0967 -0.0492  0.1921
    1DIPC   C1B11229  23.619  20.021   5.884  0.1989 -0.0745  0.0165
    1DIPC   D2B11230  23.299  19.963   5.676  0.0900 -0.0215  0.0116
    1DIPC   D3B11231  23.114  19.536   5.611  0.3404 -0.2468  0.0682
    1DIPC   C4B11232  22.802  19.392   5.345  0.1594  0.4514  0.0836
    1DIPC   NC311233   4.502  23.604   5.769  0.1706 -0.3054  0.0702
    1DIPC   PO411234   4.816  23.394   5.490 -0.0596  0.1558 -0.1742
    1DIPC   GL111235   4.747  23.670   5.134 -0.3303  0.1121 -0.1455
    1DIPC   GL211236   4.822  23.982   5.052 -0.2652  0.1876 -0.1231
    1DIPC   C1A11237   4.773  23.683   4.658 -0.1444  0.0286  0.2820
    1DIPC   D2A11238   4.798  23.777   4.220 -0.1886  0.0910  0.0320
    1DIPC   D3A11239   4.461  24.010   4.134  0.1462  0.0998  0.2413
    1DIPC   C4A11240   4.178  24.372   4.325  0.3492  0.2083  0.3623
    1DIPC   C1B11241   5.034  24.517   4.949  0.1946  0.1141 -0.1720
    1DIPC   D2B11242   5.221  24.586   4.473 -0.0365 -0.0799  0.2533
    1DIPC   D3B11243   5.628  24.789   4.471 -0.2433 -0.0191  0.2638
    1DIPC   C4B11244   5.755  24.816   4.039  0.1661 -0.0267 -0.3423
    1DIPC   NC311245   2.029  18.213   6.834 -0.1630 -0.2377  0.2395
    1DIPC   PO411246   2.354  18.019   6.706  0.1038 -0.0699  0.0623
    1DIPC   GL111247   2.302  17.832   6.380  0.0204 -0.2141 -0.2197
    1DIPC   GL211248   2.029  17.940   6.131 -0.0333  0.1414 -0.0823
    1DIPC   C1A11249   2.545  17.782   6.045 -0.2211  0.2811 -0.2679
    1DIPC   D2A11250   2.521  17.825   5.525  0.2036  0.0270 -0.1921
    1DIPC   D3A11251   2.570  17.583   5.178  0.2283 -0.0895 -0.2790
    1DIPC   C4A11252   3.043  17.567   5.134 -0.0728  0.2906 -0.0631
    1DIPC   C1B11253   2.131  17.716   5.820 -0.1057  0.0510  0.0752
    1DIPC   D2B11254   2.200  17.390   5.554  0.0544 -0.0428 -0.1424
    1DIPC   D3B11255   1.990  17.454   5.123 -0.2741 -0.0701  0.2387
    1DIPC   C4B11256   1.738  17.845   5.179  0.1394  0.1219 -0.0302
    1DIPC   NC311257  11.793   5.534   7.241  0.2565 -0.0020 -0.1685
    1DIPC   PO411258  12.164   5.819   7.275 -0.0708 -0.0125 -0.0604
    1DIPC   GL111259  11.887   5.853   6.866 -0.5291 -0.2016 -0.2851
    1DIPC   GL211260  11.544   5.625   6.852 -0.1699  0.2475  0.0004
    1DIPC   C1A11261  11.896   6.006   6.551  0.2578 -0.3273  0.1139
    1DIPC   D2A11262  12.178   6.226   6.176  0.1684 -0.0899 -0.2010
    1DIPC   D3A11263  12.377   6.535   6.444  0.1418 -0.2505 -0.3257
    1DIPC   C4A11264  12.339   6.830   6.107 -0.3292  0.7644  0.2136
    1DIPC   C1B11265  11.569   5.486   6.438 -0.0060  0.0283  0.0097
    1DIPC   D2B11266  11.725   5.539   5.984  0.1307 -0.2095 -0.0368
    1DIPC   D3B11267  12.089   5.704   6.183 -0.0183 -0.0209 -0.0428
    1DIPC   C4B11268  12.067   5.523   6.571 -0.0010 -0.1280  0.0062
    1DIPC   NC311269   3.976   8.219   6.820  0.3012  0.0553  0.0541
    1DIPC   PO411270   3.545   8.281   7.030  0.0342 -0.2026 -0.1821
    1DIPC   GL111271   3.422   8.144   6.604  0.0649 -0.6081 -0.0620
    1DIPC   GL211272   3.673   8.308   6.407 -0.1967  0.1703  0.1388
    1DIPC   C1A11273   3.443   7.705   6.419  0.2842 -0.4549  0.1355
    1DIPC   D2A11274   3.213   7.442   6.169  0.2134 -0.0346 -0.0128
    1DIPC   D3A11275   3.427   7.118   6.362  0.1719  0.0968  0.0364
    1DIPC   C4A11276   3.767   7.066   6.053 -0.0633 -0.0043  0.0124
    1DIPC   C1B11277   3.919   8.004   6.121  0.1753 -0.4207  0.2279
    1DIPC   D2B11278   3.696   7.549   6.042  0.0761  0.0529 -0.0691
    1DIPC   D3B11279   3.856   7.335   5.580 -0.0054  0.1422 -0.1744
    1DIPC   C4B11280   4.250   7.406   5.472 -0.0824  0.0537 -0.1066
    1DIPC   NC311281   3.264  10.926   6.332  0.2817  0.1482 -0.0409
    1DIPC   PO411282   3.583  10.801   5.996 -0.5168 -0.2373 -0.1472
    1DIPC   GL111283   3.725  11.223   5.752 -0.0436  0.2126  0.0606
    1DIPC   GL211284   3.400  11.309   5.832 -0.1898 -0.0261  0.0072
    1DIPC   C1A11285   3.821  11.528   5.405 -0.0688  0.0271  0.1481
    1DIPC   D2A11286   4.237  11.810   5.272  0.0889  0.5517  0.1819
    1DIPC   D3A11287   4.380  11.679   4.857  0.3581 -0.0983  0.4172
    1DIPC   C4A11288   4.189  11.456   4.640 -0.2387 -0.0902  0.2801
    1DIPC   C1B11289   3.325  11.430   5.438  0.1817  0.1169  0.0040
    1DIPC   D2B11290   2.908  11.515   5.194 -0.1665  0.1750  0.0659
    1DIPC   D3B11291   3.031  11.096   5.186  0.1687 -0.1580 -0.0892
    1DIPC   C4B11292   3.109  10.959   4.876  0.0321 -0.1772 -0.0517
    1DIPC   NC311293   0.540   7.372   6.870 -0.3338 -0.4164 -0.0732
    1DIPC   PO411294   0.574   6.879   6.837 -0.0992 -0.1574 -0.0184
    1DIPC   GL111295   0.628   6.672   6.451 -0.1028 -0.2188  0.1413
    1DIPC   GL211296   0.896   6.846   6.240 -0.0871  0.0911  0.1038
    1DIPC   C1A11297   0.380   6.643   6.010 -0.2197 -0.2055 -0.1646
    1DIPC   D2A11298   0.271   6.312   5.902  0.0406 -0.2353  0.3663
    1DIPC   D3A11299   0.476   6.413   5.576  0.0988 -0.1420 -0.1043
    1DIPC   C4A11300   0.138   6.266   5.244  0.0654 -0.0747  0.0025
    1DIPC   C1B11301   1.042   6.901   5.763  0.2210 -0.2596  0.1738
    1DIPC   D2B11302   0.857   6.730   5.441 -0.0228 -0.0499 -0.0664
    1DIPC   D3B11303   0.537   6.926   5.230  0.0029  0.0016 -0.2384
    1DIPC   C4B11304   0.237   6.685   5.029  0.0863  0.3050 -0.1004
    1DIPC   NC311305  18.714   1.047   7.627  0.0253  0.2609  0.0781
    1DIPC   PO411306  18.372   1.274   7.661 -0.3004  0.1136 -0.0264
    1DIPC   GL111307  18.596   1.622   7.497  0.2404 -0.0079 -0.0754
    1DIPC   GL211308  18.412   1.796   7.691  0.1301  0.0259 -0.0324
    1DIPC   C1A11309  18.485   1.828   7.181  0.3594 -0.2139  0.0248
    1DIPC   D2A11310  18.100   1.921   6.901  0.0760  0.0511 -0.0142
    1DIPC   D3A11311  18.407   1.694   6.705 -0.2133  0.0142 -0.2824
    1DIPC   C4A11312  18.870   1.549   6.858 -0.1667 -0.0095 -0.0003
    1DIPC   C1B11313  17.957   1.811   7.421 -0.1623 -0.1441  0.0417
    1DIPC   D2B11314  17.691   1.567   7.062 -0.0403 -0.0000 -0.2984
    1DIPC   D3B11315  17.954   1.500   6.624 -0.0142  0.1507 -0.0424
    1DIPC   C4B11316  17.872   1.651   6.281 -0.2188 -0.1776  0.3667
    1DIPC   NC311317  11.179  23.628   5.359  0.2079 -0.4087 -0.0041
    1DIPC   PO411318  10.779  23.833   5.264  0.0972 -0.1118  0.0050
    1DIPC   GL111319  10.856  23.694   4.896  0.0688  0.0957 -0.1222
    1DIPC   GL211320  11.240  23.811   4.911 -0.1955 -0.1180 -0.1606
    1DIPC   C1A11321  10.847  23.743   4.480 -0.0621 -0.2646 -0.1089
    1DIPC   D2A11322  10.929  23.567   4.033  0.2236  0.1365  0.2230
    1DIPC   D3A11323  10.422  23.522   4.077 -0.1009 -0.1002 -0.1409
    1DIPC   C4A11324  10.277  23.371   3.719  0.0124 -0.1645 -0.0302
    1DIPC   C1B11325  11.241  24.036   4.458 -0.4508  0.0038  0.0793
    1DIPC   D2B11326  11.330  23.859   4.036 -0.1607  0.0028 -0.2153
    1DIPC   D3B11327  11.405  24.177   3.891  0.1000 -0.2426 -0.0287
    1DIPC   C4B11328  11.081  24.499   3.639 -0.0602 -0.1041 -0.0334
    1DIPC   NC311329   3.795  15.781   6.288  0.0621 -0.2109  0.1378
    1DIPC   PO411330   4.264  15.943   6.195 -0.0963  0.0870 -0.0754
    1DIPC   GL111331   4.095  16.130   5.781 -0.0837  0.1951 -0.1660
    1DIPC   GL211332   3.849  16.222   5.610 -0.2120  0.0906 -0.2083
    1DIPC   C1A11333   4.281  16.339   5.395  0.2066  0.1110 -0.1716
    1DIPC   D2A11334   4.350  16.326   5.049  0.1101  0.3242  0.2059
    1DIPC   D3A11335   4.286  16.221   4.603 -0.0500  0.0406  0.1209
    1DIPC   C4A11336   3.989  15.957   4.501  0.1313 -0.1556 -0.2267
    1DIPC   C1B11337   3.466  16.383   5.880  0.0519  0.1060  0.1818
    1DIPC   D2B11338   3.060  16.682   5.970 -0.0372  0.1068 -0.2335
    1DIPC   D3B11339   2.761  16.410   5.946  0.0469 -0.5559 -0.1718
    1DIPC   C4B11340   2.507  16.221   6.297  0.1550 -0.0449  0.3271
    1DIPC   NC311341   7.333   9.015   6.445  0.1359 -0.5001 -0.2483
    1DIPC   PO411342   6.875   8.954   6.640 -0.0421  0.2904 -0.1082
    1DIPC   GL111343   6.776   9.059   6.209  0.2056 -0.1458 -0.2016
    1DIPC   GL211344   7.109   9.103   6.006  0.4027  0.0332  0.0770
    1DIPC   C1A11345   6.665   9.261   5.830 -0.1615 -0.1289  0.1201
    1DIPC   D2A11346   6.269   9.530   5.703  0.1935  0.0670  0.1057
    1DIPC   D3A11347   6.283   9.335   6.133 -0.1566 -0.0607  0.3010
    1DIPC   C4A11348   6.356   8.825   6.248 -0.1644 -0.0817 -0.2703
    1DIPC   C1B11349   7.039   8.793   5.784  0.0327 -0.0620 -0.3174
    1DIPC   D2B11350   6.927   8.331   5.889 -0.0714  0.1477  0.0068
    1DIPC   D3B11351   6.588   8.569   5.867 -0.0146  0.1675  0.3320
    1DIPC   C4B11352   6.183   8.434   5.954 -0.0557 -0.0743 -0.0340
    1DIPC   NC311353  18.931  19.864   5.673 -0.1988 -0.0842 -0.0588
    1DIPC   PO411354  18.711  19.677   5.832 -0.0325 -0.0421 -0.0149
    1DIPC   GL111355  18.438  19.782   5.421 -0.0558  0.0731  0.0058
    1DIPC   GL211356  18.432  20.067   5.312  0.0348  0.0639  0.0972
    1DIPC   C1A11357  18.295  19.633   4.967 -0.2288 -0.2428 -0.0025
    1DIPC   D2A11358  18.181  19.565   4.547  0.1094  0.1277 -0.0025
    1DIPC   D3A11359  18.263  19.188   4.355  0.2034 -0.1056  0.3597
    1DIPC   C4A11360  17.970  18.979   4.058 -0.1575  0.2477  0.1175
    1DIPC   C1B11361  18.351  20.154   4.920 -0.0233 -0.3951  0.0344
    1DIPC   D2B11362  18.320  20.069   4.562 -0.2536  0.1041 -0.3888
    1DIPC   D3B11363  18.017  19.997   4.260  0.1602 -0.3094  0.0895
    1DIPC   C4B11364  18.004  19.579   4.090 -0.0249 -0.1482  0.1436
    1DIPC   NC311365  15.125  29.616   7.105  0.0303 -0.1085 -0.2680
    1DIPC   PO411366  14.815  29.315   7.124 -0.0754 -0.1591  0.1754
    1DIPC   GL111367  14.786  29.454   6.712  0.2672  0.2407 -0.0961
    1DIPC   GL211368  14.837  29.839   6.650 -0.0028 -0.4062  0.1602
    1DIPC   C1A11369  14.862  29.305   6.382  0.2695  0.1687 -0.0887
    1DIPC   D2A11370  15.222  28.958   6.436 -0.1465  0.0874  0.2747
    1DIPC   D3A11371  15.229  28.537   6.205 -0.0851 -0.3061 -0.2809
    1DIPC   C4A11372  15.471  28.386   5.830 -0.1380 -0.0761  0.1996
    1DIPC   C1B11373  14.937  29.777   6.172 -0.1749  0.0159 -0.2982
    1DIPC   D2B11374  14.781   0.259   5.830 -0.4047 -0.0544 -0.2266
    1DIPC   D3B11375  14.559  29.670   5.880  0.1339  0.0576 -0.2546
    1DIPC   C4B11376  14.540  29.253   6.051 -0.2444 -0.0242  0.0016
    1DIPC   NC311377  16.293  17.293   6.345  0.2988 -0.2427 -0.1618
    1DIPC   PO411378  16.213  17.247   6.039 -0.1997 -0.0924  0.0615
    1DIPC   GL111379  16.174  17.439   5.641  0.1210  0.0725 -0.1086
    1DIPC   GL211380  15.795  17.518   5.626 -0.4219 -0.1011  0.0444
    1DIPC   C1A11381  16.311  17.447   5.251  0.2769 -0.0484  0.0378
    1DIPC   D2A11382  16.555  17.558   4.889  0.0500 -0.1052 -0.0465
    1DIPC   D3A11383  16.437  17.610   4.440 -0.1104  0.0033 -0.0457
    1DIPC   C4A11384  16.645  17.345   4.204  0.0408 -0.3992 -0.3958
    1DIPC   C1B11385  15.701  17.486   5.172 -0.0486  0.0933 -0.1346
    1DIPC   D2B11386  15.519  17.242   4.828  0.0162  0.2536  0.4453
    1DIPC   D3B11387  15.429  17.529   4.494  0.2670  0.0736 -0.1927
    1DIPC   C4B11388  15.437  17.478   4.099 -0.1705  0.1406  0.1420
    1DIPC   NC311389  17.488  28.853   7.240 -0.0415 -0.1162 -0.1014
    1DIPC   PO411390  17.292  29.077   6.994 -0.1032 -0.0253  0.2318
    1DIPC   GL111391  17.176  29.573   6.861 -0.1868  0.1061 -0.0206
    1DIPC   GL211392  16.875  29.556   6.896 -0.0883  0.0130 -0.4904
    1DIPC   C1A11393  17.090   0.072   6.647  0.0490 -0.1002  0.4765
    1DIPC   D2A11394  17.079   0.385   6.369  0.0008  0.1918 -0.0762
    1DIPC   D3A11395  16.770   0.518   6.126 -0.1964  0.2386  0.0273
    1DIPC   C4A11396  16.835   0.796   5.699  0.2089 -0.3392 -0.0042
    1DIPC   C1B11397  16.725  29.484   6.576  0.1544  0.2814 -0.0115
    1DIPC   D2B11398  16.793  29.006   6.360 -0.2790 -0.4706  0.1556
    1DIPC   D3B11399  16.805  29.089   5.970 -0.1711 -0.0643  0.0459
    1DIPC   C4B11400  16.569  29.169   5.646  0.0230  0.0266  0.0219
    1DIPC   NC311401  17.416  16.816   6.684 -0.2671 -0.0703  0.3542
    1DIPC   PO411402  17.702  16.552   6.588  0.1249  0.2190 -0.0802
    1DIPC   GL111403  17.497  16.563   6.161 -0.1180  0.1911 -0.0214
    1DIPC   GL211404  17.207  16.479   6.185  0.0440  0.1096  0.2061
    1DIPC   C1A11405  17.446  16.548   5.687  0.0621 -0.0235  0.0882
    1DIPC   D2A11406  17.486  16.267   5.449 -0.2387 -0.0010  0.0419
    1DIPC   D3A11407  17.912  16.525   5.427  0.0412  0.2044  0.0798
    1DIPC   C4A11408  17.962  16.733   5.837 -0.2251  0.0462 -0.3280
    1DIPC   C1B11409  16.972  16.350   5.901 -0.0010  0.0228 -0.0462
    1DIPC   D2B11410  16.591  16.522   5.665  0.1220  0.0575  0.2065
    1DIPC   D3B11411  16.528  16.166   5.425 -0.1725 -0.1097  0.1111
    1DIPC   C4B11412  16.626  16.153   5.014 -0.1246 -0.2287 -0.1618
    1DIPC   NC311413  11.783   4.476   7.444  0.0797  0.2541 -0.1695
    1DIPC   PO411414  11.598   4.920   7.315  0.1128 -0.1509  0.1271
    1DIPC   GL111415  11.879   5.073   7.039 -0.1213  0.2409  0.0117
    1DIPC   GL211416  11.736   5.133   6.844 -0.2320  0.1144  0.0181
    1DIPC   C1A11417  12.173   5.040   6.679  0.1024  0.0282  0.2090
    1DIPC   D2A11418  12.475   4.870   6.284 -0.1055 -0.0560  0.2909
    1DIPC   D3A11419  12.372   4.949   5.899  0.0885 -0.0143 -0.0017
    1DIPC   C4A11420  12.514   4.596   5.715 -0.2142  0.0650  0.2866
    1DIPC   C1B11421  11.550   4.938   6.533  0.1392  0.0111  0.0771
    1DIPC   D2B11422  11.438   4.826   6.068  0.0113 -0.0635  0.0349
    1DIPC   D3B11423  11.810   4.913   5.866  0.0604  0.2241  0.2695
    1DIPC   C4B11424  12.011   5.188   6.172 -0.2256 -0.0908 -0.2700
    1DIPC   NC311425   2.959   0.040   6.164  0.1814 -0.2139 -0.2992
    1DIPC   PO411426   3.094   0.397   6.176 -0.0019  0.2272 -0.0585
    1DIPC   GL111427   3.048   0.299   5.765  0.2966  0.0489  0.0275
    1DIPC   GL211428   2.739   0.233   5.755 -0.0823  0.0203  0.2710
    1DIPC   C1A11429   3.252   0.087   5.449  0.2093  0.2327 -0.0974
    1DIPC   D2A11430   3.228  29.512   5.241 -0.0777  0.2615  0.0335
    1DIPC   D3A11431   3.167  29.379   4.720 -0.1442  0.0473 -0.0648
    1DIPC   C4A11432   3.447  29.375   4.374 -0.3219 -0.1034 -0.0386
    1DIPC   C1B11433   2.709   0.599   5.485 -0.2088 -0.1703 -0.0912
    1DIPC   D2B11434   2.627   0.910   5.256 -0.0239  0.2860  0.2418
    1DIPC   D3B11435   2.499   1.393   5.305  0.0510 -0.3994  0.3822
    1DIPC   C4B11436   2.320   1.414   5.678 -0.2055 -0.2722 -0.0308
    1DIPC   NC311437  19.033  26.978   6.128  0.3257  0.1394  0.0499
    1DIPC   PO411438  18.934  27.448   6.096 -0.2727  0.4518 -0.1049
    1DIPC   GL111439  18.894  27.394   5.703  0.0739  0.1036  0.1059
    1DIPC   GL211440  18.899  27.088   5.670 -0.2072 -0.3336 -0.0998
    1DIPC   C1A11441  18.607  27.563   5.336 -0.2275 -0.2390  0.2810
    1DIPC   D2A11442  18.513  27.406   4.925 -0.2365 -0.0629 -0.1856
    1DIPC   D3A11443  18.115  27.366   5.075  0.1399 -0.2283  0.0261
    1DIPC   C4A11444  17.722  27.532   5.015 -0.1368  0.3470  0.1978
    1DIPC   C1B11445  18.991  27.185   5.127 -0.1002 -0.2202  0.0458
    1DIPC   D2B11446  18.987  27.455   4.752 -0.1075 -0.2595 -0.0918
    1DIPC   D3B11447  19.146  27.201   4.402 -0.0115  0.2172  0.0524
    1DIPC   C4B11448  19.083  27.427   4.051  0.2361  0.1976 -0.0262
    1DIPC   NC311449  24.921   1.279   6.983 -0.0731  0.1460  0.0579
    1DIPC   PO411450  24.539   0.857   6.993 -0.2590  0.0406  0.0481
    1DIPC   GL111451  24.092   0.897   6.984 -0.0457  0.1015  0.1199
    1DIPC   GL211452  24.034   1.149   6.653 -0.1290 -0.0187  0.0505
    1DIPC   C1A11453  23.678   0.863   6.753  0.0436 -0.1579 -0.1354
    1DIPC   D2A11454  23.637   0.659   6.408  0.1797  0.0775  0.0821
    1DIPC   D3A11455  23.525   0.960   6.174  0.1113  0.2868 -0.1993
    1DIPC   C4A11456  23.512   0.831   5.756 -0.2948  0.0258  0.4971
    1DIPC   C1B11457  24.402   1.155   6.459  0.0735 -0.0079 -0.2148
    1DIPC   D2B11458  24.845   1.185   6.501  0.2833  0.0595 -0.0816
    1DIPC   D3B11459  24.902   1.613   6.547  0.0625  0.2666 -0.4323
    1DIPC   C4B11460  25.237   1.864   6.283  0.1270 -0.0799  0.5072
    1DIPC   NC311461  26.446  20.164   6.271  0.0571 -0.1588  0.0852
    1DIPC   PO411462  25.935  20.359   6.275  0.2322  0.1107  0.2642
    1DIPC   GL111463  25.988  20.337   5.848 -0.0740 -0.1398  0.1604
    1DIPC   GL211464  26.290  20.388   5.704 -0.1280 -0.0167  0.2751
    1DIPC   C1A11465  25.745  20.343   5.494  0.1291 -0.1145  0.0995
    1DIPC   D2A11466  25.738  20.253   5.056  0.1880 -0.1303  0.1227
    1DIPC   D3A11467  25.603  20.739   5.095 -0.2128  0.2486 -0.3682
    1DIPC   C4A11468  25.455  20.978   4.786 -0.1796  0.0689 -0.2729
    1DIPC   C1B11469  26.208  20.217   5.313 -0.1302 -0.0054 -0.0877
    1DIPC   D2B11470  26.078  20.600   5.015 -0.1337 -0.0561 -0.2076
    1DIPC   D3B11471  25.936  20.815   4.628  0.0875 -0.0987 -0.0713
    1DIPC   C4B11472  25.695  20.563   4.301  0.0906  0.2679 -0.3246
    1DIPC   NC311473   0.005  25.321   6.381  0.2024 -0.2370  0.0859
    1DIPC   PO411474  29.604  25.695   6.262 -0.1299  0.1277  0.1467
    1DIPC   GL111475  29.729  25.682   5.875 -0.1746  0.1729  0.0825
    1DIPC   GL211476  29.641  25.274   5.849 -0.2622 -0.1984 -0.2727
    1DIPC   C1A11477  29.771  25.527   5.285 -0.1137  0.1940  0.0288
    1DIPC   D2A11478  29.552  25.741   4.872 -0.2714  0.1652 -0.2182
    1DIPC   D3A11479  29.365  25.760   4.486 -0.1269 -0.0132 -0.1671
    1DIPC   C4A11480  29.390  25.393   4.230 -0.0412  0.1018 -0.1061
    1DIPC   C1B11481  29.398  25.357   5.581 -0.1564  0.1471 -0.3210
    1DIPC   D2B11482  29.091  25.130   5.315 -0.2263 -0.2673 -0.0083
    1DIPC   D3B11483  29.066  24.871   4.870 -0.1230 -0.1905  0.0542
    1DIPC   C4B11484  29.299  24.534   4.592 -0.0246  0.0940 -0.1922
    1DIPC   NC311485  11.162   3.140   8.204 -0.0314 -0.3568 -0.4956
    1DIPC   PO411486  11.362   3.120   7.788 -0.0323  0.2263  0.3138
    1DIPC   GL111487  11.404   3.168   7.321  0.0959 -0.0148  0.2358
    1DIPC   GL211488  11.227   3.292   7.063  0.0879  0.1156 -0.1347
    1DIPC   C1A11489  11.840   3.071   6.970  0.0997  0.0158 -0.2298
    1DIPC   D2A11490  11.946   3.170   6.635  0.1685  0.0743 -0.1588
    1DIPC   D3A11491  12.314   3.312   6.495 -0.0743  0.0820  0.1576
    1DIPC   C4A11492  12.269   3.058   6.098 -0.0281  0.1005  0.3379
    1DIPC   C1B11493  10.877   3.419   6.842  0.1760  0.3019 -0.1546
    1DIPC   D2B11494  10.561   3.753   6.681 -0.1447 -0.0503 -0.0482
    1DIPC   D3B11495  10.648   4.237   6.717 -0.2907  0.0323 -0.0364
    1DIPC   C4B11496  10.611   4.474   6.410  0.0969 -0.2499  0.0890
    1DIPC   NC311497   4.706  22.560   5.708 -0.0734  0.0752 -0.2736
    1DIPC   PO411498   4.509  22.984   5.746 -0.2615  0.3182  0.1649
    1DIPC   GL111499   4.687  22.953   5.312  0.3826  0.0644 -0.3656
    1DIPC   GL211500   4.796  22.654   5.257 -0.1627  0.2823  0.1469
    1DIPC   C1A11501   4.795  23.093   4.919 -0.0919 -0.0451  0.2419
    1DIPC   D2A11502   5.119  23.245   4.529  0.2256  0.0203 -0.3316
    1DIPC   D3A11503   5.169  22.846   4.239  0.1577  0.0823 -0.0039
    1DIPC   C4A11504   5.084  22.992   3.708 -0.2176  0.1473  0.1310
    1DIPC   C1B11505   5.205  22.732   5.108  0.1168  0.3473  0.0469
    1DIPC   D2B11506   5.294  22.791   4.730 -0.2634  0.0868  0.0092
    1DIPC   D3B11507   5.636  22.855   4.469 -0.1418  0.1328  0.0781
    1DIPC   C4B11508   5.940  22.558   4.463  0.0544 -0.1141  0.1198
    1DIPC   NC311509   0.880  19.994   6.433  0.1347  0.2696  0.0574
    1DIPC   PO411510   0.728  20.374   6.323  0.2199 -0.1106 -0.2008
    1DIPC   GL111511   0.471  20.231   6.019 -0.2249  0.6489  0.1798
    1DIPC   GL211512   0.322  20.471   5.972 -0.0444 -0.2227 -0.0525
    1DIPC   C1A11513   0.700  20.258   5.659  0.4324  0.2220  0.1492
    1DIPC   D2A11514   0.986  20.362   5.438  0.0847  0.0845 -0.1638
    1DIPC   D3A11515   0.907  20.666   5.009  0.0267  0.3216  0.0397
    1DIPC   C4A11516   1.118  20.512   4.604  0.1388  0.1406  0.1496
    1DIPC   C1B11517   0.038  20.333   5.690  0.2138  0.1162 -0.1214
    1DIPC   D2B11518  29.731  20.611   5.318  0.0861  0.1081  0.0430
    1DIPC   D3B11519  29.651  20.973   5.353  0.2210  0.1627 -0.2156
    1DIPC   C4B11520  29.372  21.019   5.115 -0.3550 -0.3002 -0.1201
    1DIPC   NC311521  26.931   4.946   6.658  0.0309 -0.1461  0.0340
    1DIPC   PO411522  26.485   5.000   6.818 -0.0683  0.0028 -0.1306
    1DIPC   GL111523  26.526   5.106   6.383  0.2102  0.1248  0.1057
    1DIPC   GL211524  26.535   4.764   6.311 -0.1804 -0.2018 -0.0097
    1DIPC   C1A11525  26.601   5.334   6.043  0.2404 -0.2200  0.0842
    1DIPC   D2A11526  26.845   5.560   5.874  0.0674 -0.1254 -0.1339
    1DIPC   D3A11527  26.795   5.956   5.639 -0.2148  0.2308 -0.0598
    1DIPC   C4A11528  26.465   6.072   5.578  0.0701  0.3764  0.0025
    1DIPC   C1B11529  26.518   4.897   5.898 -0.2615 -0.0603 -0.2213
    1DIPC   D2B11530  26.254   5.190   5.721  0.1098 -0.1432  0.3050
    1DIPC   D3B11531  26.546   5.507   5.490  0.2745 -0.1229 -0.0083
    1DIPC   C4B11532  26.558   5.756   5.193 -0.0626 -0.5198 -0.0443
    1DIPC   NC311533  11.434  28.192   6.503 -0.0913  0.0449  0.4205
    1DIPC   PO411534  11.832  28.082   6.612  0.3851 -0.1614 -0.3405
    1DIPC   GL111535  11.754  28.248   6.158 -0.6052 -0.0647  0.0497
    1DIPC   GL211536  11.666  28.561   6.172  0.4469  0.2518 -0.0182
    1DIPC   C1A11537  11.743  28.265   5.789 -0.1083  0.2969 -0.0717
    1DIPC   D2A11538  11.507  28.274   5.368  0.0983 -0.2126  0.0439
    1DIPC   D3A11539  11.204  28.567   5.197  0.0973  0.3622 -0.0732
    1DIPC   C4A11540  11.015  28.572   4.756 -0.0678 -0.1826  0.0440
    1DIPC   C1B11541  11.477  28.890   6.082 -0.0259 -0.2379 -0.1755
    1DIPC   D2B11542  11.445  29.314   6.135  0.4195 -0.1666  0.1045
    1DIPC   D3B11543  11.367  29.199   5.677 -0.1126  0.0990  0.0517
    1DIPC   C4B11544  11.300  29.460   5.280 -0.0390 -0.1305 -0.0911
    1DIPC   NC311545   6.293  21.640   5.740 -0.2563  0.1387  0.5227
    1DIPC   PO411546   6.275  21.188   5.490  0.0040  0.0282  0.2665
    1DIPC   GL111547   6.399  21.146   5.064  0.2240 -0.1139 -0.3841
    1DIPC   GL211548   6.410  21.439   4.991 -0.1237 -0.0816  0.1822
    1DIPC   C1A11549   6.247  21.069   4.773  0.0644  0.1197  0.0702
    1DIPC   D2A11550   5.901  20.815   4.721 -0.3749 -0.2711 -0.1128
    1DIPC   D3A11551   5.967  20.776   4.238 -0.1341  0.0558 -0.3149
    1DIPC   C4A11552   6.151  20.345   4.204  0.0536  0.0578  0.4388
    1DIPC   C1B11553   6.006  21.434   4.968 -0.0742 -0.2799 -0.0021
    1DIPC   D2B11554   5.630  21.253   4.677  0.4077 -0.0542  0.0006
    1DIPC   D3B11555   5.480  20.905   4.367  0.3172 -0.0413  0.0354
    1DIPC   C4B11556   5.587  20.473   4.392  0.0279  0.2712 -0.0945
    1DIPC   NC311557  10.640  24.542   6.465  0.1017 -0.0038 -0.0374
    1DIPC   PO411558  10.921  24.393   6.074 -0.0214  0.1039 -0.3518
    1DIPC   GL111559  10.809  24.454   5.686  0.2505 -0.1629 -0.4229
    1DIPC   GL211560  10.763  24.295   5.458 -0.1270 -0.0287  0.0036
    1DIPC   C1A11561  10.396  24.587   5.557  0.1310  0.4096 -0.1754
    1DIPC   D2A11562  10.003  24.659   5.201 -0.0060 -0.1365 -0.0457
    1DIPC   D3A11563  10.098  24.528   4.808 -0.3267 -0.1571 -0.0950
    1DIPC   C4A11564  10.369  24.557   4.365  0.0301  0.0003 -0.2117
    1DIPC   C1B11565  10.551  24.485   5.106  0.0886  0.0036 -0.0385
    1DIPC   D2B11566  10.524  24.795   4.824  0.3012  0.2791  0.2601
    1DIPC   D3B11567  10.126  25.020   4.806  0.1716 -0.2409 -0.0808
    1DIPC   C4B11568  10.070  25.020   4.401 -0.0733 -0.1682 -0.0911
    1DIPC   NC311569  22.005  20.380   5.960  0.1382  0.2349 -0.2267
    1DIPC   PO411570  21.521  20.507   6.028  0.2841  0.0956  0.0283
    1DIPC   GL111571  21.721  20.769   5.719  0.2470  0.1974 -0.0360
    1DIPC   GL211572  21.997  20.613   5.488 -0.0677 -0.0969  0.0787
    1DIPC   C1A11573  21.550  20.912   5.299  0.2493  0.2369 -0.0840
    1DIPC   D2A11574  21.332  20.812   4.845  0.4458 -0.1912 -0.0175
    1DIPC   D3A11575  21.498  21.035   4.543  0.0684 -0.0656  0.0410
    1DIPC   C4A11576  21.822  20.924   4.351  0.3593 -0.2889  0.1552
    1DIPC   C1B11577  22.015  20.244   5.167 -0.1292 -0.0394  0.2271
    1DIPC   D2B11578  22.000  19.875   4.823  0.3155 -0.1948 -0.1917
    1DIPC   D3B11579  22.288  20.064   4.669 -0.0891  0.1402  0.0149
    1DIPC   C4B11580  22.625  19.957   4.374  0.3555  0.1682  0.0288
    1DIPC   NC311581   0.366  20.951   6.157  0.0425 -0.1407  0.1773
    1DIPC   PO411582   0.184  21.265   5.980 -0.4152 -0.0768  0.0662
    1DIPC   GL111583   0.262  21.186   5.629  0.1742 -0.0514 -0.0306
    1DIPC   GL211584   0.315  20.871   5.647 -0.0339 -0.2419 -0.0672
    1DIPC   C1A11585   0.321  21.086   5.179 -0.1818 -0.1353  0.1817
    1DIPC   D2A11586   0.251  21.108   4.743  0.0351 -0.1255 -0.1136
    1DIPC   D3A11587  29.766  20.977   4.817 -0.0825  0.1768  0.0098
    1DIPC   C4A11588  29.615  20.866   4.469 -0.1594  0.2713 -0.1806
    1DIPC   C1B11589   0.416  20.583   5.347  0.0145 -0.1203  0.1022
    1DIPC   D2B11590   0.586  20.322   5.014  0.2848  0.1501 -0.1225
    1DIPC   D3B11591   0.625  20.346   4.546  0.0179  0.0231 -0.2681
    1DIPC   C4B11592   0.845  20.441   4.202 -0.2491 -0.2200 -0.2114
    1DIPC   NC311593   5.829  26.924   5.675  0.2569 -0.0181  0.1548
    1DIPC   PO411594   6.295  27.071   5.824  0.0379  0.1030 -0.1211
    1DIPC   GL111595   6.396  27.062   5.421 -0.2344  0.0794  0.0901
    1DIPC   GL211596   6.207  26.815   5.301 -0.2517  0.0145  0.0918
    1DIPC   C1A11597   6.511  27.052   5.014 -0.2156 -0.1702 -0.0639
    1DIPC   D2A11598   6.735  27.217   4.773  0.0352 -0.2034 -0.3109
    1DIPC   D3A11599   6.667  27.577   4.855  0.1606  0.0909  0.0268
    1DIPC   C4A11600   6.421  27.750   4.587 -0.4207  0.1683  0.2038
    1DIPC   C1B11601   6.250  26.612   4.969  0.2930  0.0758 -0.2000
    1DIPC   D2B11602   6.101  26.727   4.544 -0.1812 -0.0376 -0.0539
    1DIPC   D3B11603   6.006  26.379   4.351  0.3505  0.0783 -0.1276
    1DIPC   C4B11604   6.143  26.309   3.928 -0.2332  0.0947  0.1448
    1DIPC   NC311605  12.322   1.201   7.532  0.1093 -0.0624 -0.0728
    1DIPC   PO411606  11.973   0.862   7.264 -0.2127  0.1151 -0.1615
    1DIPC   GL111607  12.332   0.908   6.958  0.0689 -0.1400  0.0040
    1DIPC   GL211608  12.255   1.192   6.876 -0.3562  0.1654 -0.1447
    1DIPC   C1A11609  12.483   0.645   6.604 -0.1216 -0.1073  0.0410
    1DIPC   D2A11610  12.894   0.524   6.462  0.0790  0.2793 -0.0939
    1DIPC   D3A11611  12.708   0.307   6.108  0.3432 -0.2056 -0.1120
    1DIPC   C4A11612  12.747   0.415   5.691 -0.0960 -0.2113  0.0246
    1DIPC   C1B11613  12.008   1.172   6.517  0.1091  0.0699  0.1698
    1DIPC   D2B11614  12.020   1.053   6.082  0.2122  0.1649 -0.0792
    1DIPC   D3B11615  12.487   1.043   6.278  0.3330  0.2808  0.0593
    1DIPC   C4B11616  12.829   0.835   6.032  0.0926  0.0783  0.0924
    1DIPC   NC311617   9.445  23.813   5.661 -0.0625 -0.3224 -0.0385
    1DIPC   PO411618   9.529  24.285   5.741  0.1555  0.0870  0.3146
    1DIPC   GL111619   9.736  24.227   5.384 -0.2612 -0.1626  0.1070
    1DIPC   GL211620   9.666  24.045   5.228  0.4826  0.2312 -0.1421
    1DIPC   C1A11621  10.102  24.158   5.184 -0.1706 -0.0627  0.2215
    1DIPC   D2A11622  10.368  23.923   4.825 -0.0151  0.3367 -0.2043
    1DIPC   D3A11623  10.639  24.260   4.659  0.0661 -0.3433  0.0100
    1DIPC   C4A11624  11.027  24.301   4.859 -0.1766 -0.2691 -0.0999
    1DIPC   C1B11625   9.660  24.219   4.808 -0.1381 -0.1347  0.0425
    1DIPC   D2B11626   9.848  24.428   4.414 -0.2609 -0.3489  0.1927
    1DIPC   D3B11627  10.093  24.341   4.017 -0.2010 -0.0176 -0.3688
    1DIPC   C4B11628   9.997  23.931   3.807  0.1414 -0.2642  0.0996
    1DIPC   NC311629  13.467  23.110   5.614 -0.1337  0.1569  0.1183
    1DIPC   PO411630  13.193  22.879   5.816  0.0199 -0.0796 -0.1513
    1DIPC   GL111631  12.997  23.215   5.600  0.1124 -0.1786  0.1890
    1DIPC   GL211632  13.139  23.015   5.247  0.0179  0.0687 -0.1689
    1DIPC   C1A11633  12.778  23.610   5.429 -0.5284 -0.1885 -0.0265
    1DIPC   D2A11634  12.407  23.847   5.242 -0.0457  0.1509 -0.0877
    1DIPC   D3A11635  12.423  23.582   4.983  0.0873 -0.1928 -0.0680
    1DIPC   C4A11636  12.239  23.492   4.541 -0.2379  0.1477  0.1092
    1DIPC   C1B11637  12.951  22.974   4.768 -0.1391  0.0705  0.0577
    1DIPC   D2B11638  12.779  23.180   4.410 -0.2774 -0.1814 -0.1294
    1DIPC   D3B11639  13.158  23.234   4.117 -0.0562 -0.1314  0.1426
    1DIPC   C4B11640  12.973  22.963   3.825 -0.0234  0.2301  0.1000
    1DIPC   NC311641  29.796  21.025   6.945 -0.3402 -0.3664  0.1917
    1DIPC   PO411642  29.719  21.052   6.361  0.0604 -0.3889 -0.0291
    1DIPC   GL111643  29.585  21.168   5.854  0.0633  0.1007  0.1725
    1DIPC   GL211644  29.573  21.501   5.814 -0.0772 -0.2035 -0.1182
    1DIPC   C1A11645  29.252  21.265   5.562  0.0708 -0.0293  0.4991
    1DIPC   D2A11646  29.280  21.566   5.249 -0.0299  0.2529 -0.0769
    1DIPC   D3A11647  29.025  21.499   4.949  0.1288 -0.1828 -0.0450
    1DIPC   C4A11648  29.149  21.181   4.659 -0.1502  0.2304 -0.3176
    1DIPC   C1B11649  29.813  21.554   5.436  0.1795 -0.3556 -0.2211
    1DIPC   D2B11650  29.707  21.411   5.033  0.1070 -0.3999  0.1734
    1DIPC   D3B11651  29.530  21.712   4.850  0.0498 -0.0635  0.2534
    1DIPC   C4B11652  29.208  22.042   5.098  0.2164  0.1707  0.0236
    1DIPC   NC311653   3.478  15.911   7.087  0.0688 -0.0335  0.1770
    1DIPC   PO411654   3.354  15.822   6.550  0.3595  0.0457 -0.0769
    1DIPC   GL111655   3.103  15.659   6.354  0.1094  0.0349  0.0080
    1DIPC   GL211656   2.897  15.902   6.247  0.3261  0.0931  0.1524
    1DIPC   C1A11657   2.917  15.397   6.059  0.0764 -0.1782 -0.0380
    1DIPC   D2A11658   2.552  15.342   5.722 -0.0878  0.1675 -0.1739
    1DIPC   D3A11659   2.546  15.584   5.292 -0.0734  0.0268  0.1684
    1DIPC   C4A11660   2.925  15.435   4.940  0.2794 -0.0297  0.0603
    1DIPC   C1B11661   2.698  15.841   5.866  0.1693  0.0646  0.0616
    1DIPC   D2B11662   2.316  15.921   5.664  0.0340 -0.2638 -0.1390
    1DIPC   D3B11663   2.421  16.061   5.176  0.1554  0.0471 -0.2117
    1DIPC   C4B11664   2.476  15.871   4.824 -0.1202 -0.1367 -0.1554
    1DIPC   NC311665  20.977  27.789   6.623 -0.0098  0.1784  0.1428
    1DIPC   PO411666  21.413  27.722   6.714  0.0640 -0.3169 -0.2371
    1DIPC   GL111667  21.670  27.686   6.288 -0.0842 -0.0310  0.1926
    1DIPC   GL211668  21.741  27.389   6.052  0.0845 -0.2529  0.2283
    1DIPC   C1A11669  21.884  27.932   5.885 -0.0648 -0.0642  0.0570
    1DIPC   D2A11670  22.164  27.589   5.685  0.1135 -0.4282 -0.0721
    1DIPC   D3A11671  22.378  27.779   5.362 -0.0139  0.2533  0.1744
    1DIPC   C4A11672  22.366  28.286   5.346  0.2450 -0.2650 -0.0387
    1DIPC   C1B11673  22.174  27.171   5.919 -0.0611  0.0213 -0.2911
    1DIPC   D2B11674  22.251  26.827   5.502 -0.2661  0.0424  0.0412
    1DIPC   D3B11675  21.915  26.970   5.060 -0.2126  0.0407 -0.0011
    1DIPC   C4B11676  22.182  27.149   4.767 -0.0013  0.3555 -0.0539
    1DIPC   NC311677   1.805   9.787   6.537  0.1484  0.1281 -0.0388
    1DIPC   PO411678   1.468   9.861   6.266 -0.1676  0.2096 -0.0854
    1DIPC   GL111679   1.428  10.028   5.834 -0.0718  0.1704  0.1615
    1DIPC   GL211680   1.073  10.131   5.890  0.2934 -0.1606 -0.2309
    1DIPC   C1A11681   1.421  10.320   5.447 -0.1442  0.1436 -0.1582
    1DIPC   D2A11682   1.443  10.504   4.940 -0.0078 -0.3456 -0.1086
    1DIPC   D3A11683   1.324  10.169   4.638  0.1910  0.2536 -0.1397
    1DIPC   C4A11684   0.910  10.049   4.656  0.5765  0.0433  0.0108
    1DIPC   C1B11685   1.072   9.892   5.508  0.2602 -0.4363 -0.2846
    1DIPC   D2B11686   1.102   9.992   5.064 -0.0496  0.0426  0.2291
    1DIPC   D3B11687   1.246   9.650   4.693  0.0962  0.0058  0.2468
    1DIPC   C4B11688   1.403   9.235   4.701 -0.4426  0.2605  0.1088
    1DIPC   NC311689   9.103   3.386   7.141 -0.3532 -0.0340 -0.0539
    1DIPC   PO411690   9.313   3.068   7.002 -0.0137 -0.1961  0.3616
    1DIPC   GL111691   8.937   3.009   6.737  0.0802  0.0482 -0.1162
    1DIPC   GL211692   9.216   3.038   6.456 -0.0433 -0.0698  0.0579
    1DIPC   C1A11693   8.746   3.262   6.398  0.6349 -0.2244  0.0142
    1DIPC   D2A11694   8.686   3.840   6.303 -0.0890 -0.2213 -0.0510
    1DIPC   D3A11695   8.297   4.034   6.447 -0.1068 -0.4963 -0.0094
    1DIPC   C4A11696   8.300   4.402   6.241 -0.0394 -0.1568 -0.3784
    1DIPC   C1B11697   9.175   2.680   6.320  0.4542 -0.1268 -0.0493
    1DIPC   D2B11698   9.082   2.542   5.988  0.3070 -0.4643 -0.0353
    1DIPC   D3B11699   9.394   2.276   5.715  0.2644  0.0434  0.0535
    1DIPC   C4B11700   9.746   2.035   5.466 -0.0770  0.3768 -0.1684
    1DIPC   NC311701  27.211   3.947   6.805  0.1508  0.2873 -0.1804
    1DIPC   PO411702  27.538   3.667   6.564 -0.2137  0.0062 -0.1596
    1DIPC   GL111703  27.591   3.720   6.217  0.1671  0.0640  0.2702
    1DIPC   GL211704  27.870   3.485   6.186 -0.0509  0.0345  0.1586
    1DIPC   C1A11705  27.382   3.951   5.839  0.2633 -0.2655 -0.1428
    1DIPC   D2A11706  27.459   4.328   5.591  0.1665 -0.1372  0.0979
    1DIPC   D3A11707  27.408   4.541   5.943 -0.2169 -0.2521 -0.3159
    1DIPC   C4A11708  27.492   4.975   5.912 -0.0366  0.1746  0.0185
    1DIPC   C1B11709  28.009   3.495   5.718 -0.0054 -0.1569 -0.0952
    1DIPC   D2B11710  28.339   3.324   5.508 -0.0762  0.1997 -0.3313
    1DIPC   D3B11711  28.203   3.174   5.109 -0.1560 -0.0890 -0.1786
    1DIPC   C4B11712  27.930   2.747   4.933  0.2049  0.2140 -0.1712
    1DIPC   NC311713   3.893  27.521   6.252 -0.0350 -0.2783  0.0981
    1DIPC   PO411714   3.792  27.897   5.973 -0.1357  0.1102  0.0148
    1DIPC   GL111715   3.734  28.394   5.590 -0.0975  0.0440 -0.0710
    1DIPC   GL211716   3.446  28.223   5.458 -0.1073  0.0651 -0.0544
    1DIPC   C1A11717   3.698  28.328   5.068  0.1407  0.1582 -0.1588
    1DIPC   D2A11718   3.536  28.436   4.708  0.1408 -0.0918  0.0237
    1DIPC   D3A11719   3.369  28.895   4.808 -0.0397  0.0925 -0.1852
    1DIPC   C4A11720   3.210  28.988   4.409 -0.1815  0.3369 -0.1102
    1DIPC   C1B11721   3.322  28.008   5.106 -0.3407  0.1915 -0.2114
    1DIPC   D2B11722   3.265  27.983   4.595  0.3913 -0.2388  0.2910
    1DIPC   D3B11723   2.756  28.038   4.486 -0.1356  0.0133  0.0219
    1DIPC   C4B11724   2.473  27.896   4.866  0.1236  0.0346 -0.1462
    1DIPC   NC311725   0.180  24.083   5.938 -0.0319 -0.3384  0.0236
    1DIPC   PO411726   0.505  24.455   5.999 -0.1515  0.2776 -0.0338
    1DIPC   GL111727   0.136  24.583   5.768  0.0704  0.0321  0.0730
    1DIPC   GL211728  29.643  24.527   5.858  0.0179 -0.0867 -0.0882
    1DIPC   C1A11729  29.800  24.494   5.353 -0.4621  0.0638 -0.2535
    1DIPC   D2A11730  29.754  23.974   5.196  0.1025  0.0803  0.0021
    1DIPC   D3A11731  29.292  23.968   5.132 -0.0806 -0.0790 -0.0327
    1DIPC   C4A11732  29.048  24.045   4.742  0.0144 -0.1747  0.3200
    1DIPC   C1B11733  29.255  24.803   5.884 -0.2504  0.1359  0.1497
    1DIPC   D2B11734  28.983  25.150   5.928 -0.2421  0.0332 -0.0907
    1DIPC   D3B11735  28.700  25.182   5.572  0.0467  0.1343  0.0181
    1DIPC   C4B11736  28.476  25.597   5.475 -0.1180  0.0474  0.2147
    1DIPC   NC311737  26.998  16.323   7.156 -0.1606  0.1328 -0.0630
    1DIPC   PO411738  26.651  15.982   6.968 -0.2104 -0.0664  0.1614
    1DIPC   GL111739  26.367  16.161   6.567  0.1416 -0.0926 -0.0158
    1DIPC   GL211740  26.118  16.327   6.429  0.3408 -0.3976 -0.2185
    1DIPC   C1A11741  26.344  15.824   6.214 -0.0426  0.2222 -0.1223
    1DIPC   D2A11742  26.612  15.823   5.917  0.3207  0.2697 -0.0887
    1DIPC   D3A11743  26.564  15.666   5.417  0.0184 -0.0668  0.1747
    1DIPC   C4A11744  26.577  15.280   5.145  0.0887 -0.0963  0.1787
    1DIPC   C1B11745  26.153  16.289   5.940  0.3156 -0.0040  0.0538
    1DIPC   D2B11746  25.851  16.515   5.645  0.2171  0.0894  0.0412
    1DIPC   D3B11747  26.070  16.729   5.354 -0.1857 -0.2943  0.1807
    1DIPC   C4B11748  25.895  16.732   4.895  0.1410 -0.0136 -0.1510
    1DIPC   NC311749   4.928   8.643   6.453  0.0976 -0.0656  0.4028
    1DIPC   PO411750   4.950   8.210   6.599  0.0627  0.2069 -0.0782
    1DIPC   GL111751   4.889   8.197   6.121 -0.2931 -0.2655  0.4063
    1DIPC   GL211752   5.107   8.405   5.972  0.2309 -0.0839 -0.1532
    1DIPC   C1A11753   4.896   7.983   5.637 -0.0124  0.0287 -0.0692
    1DIPC   D2A11754   4.945   8.044   5.186 -0.1150  0.2856 -0.1051
    1DIPC   D3A11755   4.716   7.663   5.173 -0.1764 -0.1125 -0.1280
    1DIPC   C4A11756   4.686   7.505   5.639 -0.1262  0.0124 -0.2422
    1DIPC   C1B11757   5.065   8.725   5.601  0.2028 -0.2462 -0.0419
    1DIPC   D2B11758   4.601   8.887   5.514  0.1645  0.0526 -0.2691
    1DIPC   D3B11759   4.194   9.021   5.325 -0.2644  0.0606 -0.2487
    1DIPC   C4B11760   4.046   9.240   4.988 -0.5113 -0.0625  0.0388
    1DIPC   NC311761   2.797   8.785   6.696 -0.4008 -0.0017  0.1466
    1DIPC   PO411762   3.073   9.119   6.598 -0.1938 -0.0147  0.1423
    1DIPC   GL111763   3.497   9.068   6.279  0.2350 -0.2891  0.0956
    1DIPC   GL211764   3.759   9.150   6.008 -0.1265  0.0579  0.1133
    1DIPC   C1A11765   3.601   8.680   6.063 -0.0119 -0.1471  0.2556
    1DIPC   D2A11766   3.701   8.327   5.810 -0.2459 -0.0222 -0.0525
    1DIPC   D3A11767   3.427   7.977   5.930 -0.2579  0.1966  0.1569
    1DIPC   C4A11768   3.411   7.584   5.669 -0.2424  0.1153 -0.1325
    1DIPC   C1B11769   3.953   8.763   5.684  0.2031 -0.0272 -0.0299
    1DIPC   D2B11770   4.169   8.353   5.664 -0.1441 -0.2836  0.3031
    1DIPC   D3B11771   3.840   8.420   5.311  0.1539  0.2539 -0.1684
    1DIPC   C4B11772   3.915   8.749   4.947 -0.2924 -0.1246 -0.1464
    1DIPC   NC311773  15.110  16.252   6.355 -0.0628  0.0584  0.1712
    1DIPC   PO411774  15.305  16.379   6.023 -0.0185 -0.1877  0.2153
    1DIPC   GL111775  15.328  16.161   5.605 -0.2253  0.1322 -0.0804
    1DIPC   GL211776  15.592  15.852   5.565  0.0726  0.1454  0.0627
    1DIPC   C1A11777  15.160  16.054   5.264  0.2329 -0.0753  0.2292
    1DIPC   D2A11778  15.211  15.988   4.861  0.1585  0.0143  0.0314
    1DIPC   D3A11779  14.878  15.965   4.470 -0.0760 -0.0069 -0.2466
    1DIPC   C4A11780  14.812  15.550   4.448 -0.2324 -0.2089 -0.0689
    1DIPC   C1B11781  15.686  16.102   5.148  0.0374  0.2295 -0.0544
    1DIPC   D2B11782  15.598  16.331   4.739  0.0513 -0.0089  0.0544
    1DIPC   D3B11783  15.396  16.115   4.374  0.4204 -0.0936  0.0857
    1DIPC   C4B11784  15.209  16.403   4.157  0.0155 -0.0171  0.1164
    1DIPC   NC311785  18.458  25.636   6.080 -0.1968 -0.0289 -0.0722
    1DIPC   PO411786  18.620  26.109   5.949 -0.0360  0.2364  0.0634
    1DIPC   GL111787  18.711  26.225   5.562  0.0626  0.0237  0.1119
    1DIPC   GL211788  18.800  26.603   5.587  0.3150 -0.0032 -0.0147
    1DIPC   C1A11789  18.733  26.309   5.038  0.1628 -0.1270 -0.0119
    1DIPC   D2A11790  18.533  26.458   4.688 -0.2233 -0.2243  0.1830
    1DIPC   D3A11791  18.711  26.348   4.326  0.1511  0.0758 -0.0364
    1DIPC   C4A11792  18.713  26.448   3.888  0.2536 -0.0551 -0.1995
    1DIPC   C1B11793  19.017  26.687   5.267  0.1227  0.1600  0.0523
    1DIPC   D2B11794  19.088  26.741   4.831  0.2546  0.0195 -0.1310
    1DIPC   D3B11795  18.762  26.954   4.604  0.0410  0.0052 -0.0242
    1DIPC   C4B11796  18.607  27.337   4.373  0.0522 -0.0788  0.3777
    1DIPC   NC311797   2.188  13.900   6.541  0.2772  0.0290  0.2980
    1DIPC   PO411798   2.475  14.137   6.225  0.1304  0.1111  0.0605
    1DIPC   GL111799   2.662  14.443   5.912  0.3291 -0.1324 -0.1333
    1DIPC   GL211800   2.993  14.498   5.866 -0.0999 -0.0322 -0.0974
    1DIPC   C1A11801   2.608  14.766   5.599 -0.1865 -0.0898  0.0507
    1DIPC   D2A11802   2.702  15.061   5.320 -0.1729 -0.1081 -0.1990
    1DIPC   D3A11803   2.553  14.802   5.009  0.0379  0.0168 -0.2531
    1DIPC   C4A11804   2.532  14.407   4.977  0.1159 -0.0796  0.0298
    1DIPC   C1B11805   3.071  14.675   5.395 -0.2160 -0.0434  0.0227
    1DIPC   D2B11806   3.140  14.710   4.948  0.0969  0.1398 -0.2189
    1DIPC   D3B11807   3.470  14.616   4.781  0.2453 -0.0447 -0.1884
    1DIPC   C4B11808   3.426  14.816   4.441  0.0741  0.3577 -0.2105
    1DIPC   NC311809   2.490  29.595   6.742  0.0121  0.1955  0.0111
    1DIPC   PO411810   2.525  29.682   6.306 -0.0202  0.0821 -0.1292
    1DIPC   GL111811   2.445  29.587   5.845  0.1386 -0.0459  0.0564
    1DIPC   GL211812   2.141  29.660   5.650 -0.1300 -0.2415 -0.0163
    1DIPC   C1A11813   2.636  29.642   5.496  0.1079  0.0554  0.3123
    1DIPC   D2A11814   2.820  29.841   5.186  0.0205 -0.1699  0.2480
    1DIPC   D3A11815   2.777   0.033   4.658 -0.0593  0.1794 -0.3344
    1DIPC   C4A11816   3.233   0.026   4.498  0.0133  0.1815  0.1414
    1DIPC   C1B11817   2.219  29.638   5.169 -0.1337  0.0439 -0.0730
    1DIPC   D2B11818   2.319   0.059   4.817 -0.1142 -0.0759 -0.1591
    1DIPC   D3B11819   2.093   0.296   4.637  0.0834  0.3824  0.0916
    1DIPC   C4B11820   2.086   0.592   4.317  0.0979 -0.0673  0.1783
    1DIPC   NC311821   8.807  17.016   6.199 -0.2055  0.1523 -0.0285
    1DIPC   PO411822   8.358  16.970   6.039  0.0030  0.1396 -0.0667
    1DIPC   GL111823   8.484  17.081   5.655 -0.1324 -0.1260 -0.2353
    1DIPC   GL211824   8.426  17.188   5.401 -0.2636 -0.3098  0.4561
    1DIPC   C1A11825   8.807  16.855   5.314 -0.0543 -0.2129 -0.0449
    1DIPC   D2A11826   8.704  16.599   4.851  0.1037  0.3435 -0.2020
    1DIPC   D3A11827   8.679  16.611   4.437  0.2243 -0.1379 -0.2282
    1DIPC   C4A11828   8.969  16.727   4.071 -0.0943  0.0061  0.1976
    1DIPC   C1B11829   8.167  17.373   5.088 -0.3532 -0.2579 -0.1419
    1DIPC   D2B11830   8.073  17.881   4.934 -0.1084 -0.1160 -0.1800
    1DIPC   D3B11831   8.331  17.680   4.553  0.2999 -0.0358  0.1259
    1DIPC   C4B11832   8.542  17.447   4.672 -0.3352  0.0772 -0.0285
    1DIPC   NC311833  10.790  20.477   6.380 -0.0916 -0.1468  0.1134
    1DIPC   PO411834  11.145  20.715   6.076 -0.1156  0.2971  0.1866
    1DIPC   GL111835  11.181  20.684   5.677  0.2271 -0.0288  0.2097
    1DIPC   GL211836  11.411  20.832   5.496 -0.0266 -0.2118 -0.2634
    1DIPC   C1A11837  10.966  20.521   5.392  0.2319  0.0798  0.0505
    1DIPC   D2A11838  10.837  20.333   5.096  0.2666 -0.2364  0.0977
    1DIPC   D3A11839  10.812  20.790   4.922 -0.1614 -0.0060  0.2508
    1DIPC   C4A11840  10.436  20.836   4.842 -0.3901  0.2892  0.0996
    1DIPC   C1B11841  11.454  20.970   5.122 -0.0791 -0.0406 -0.1815
    1DIPC   D2B11842  11.199  21.111   4.725 -0.1833 -0.1480  0.0875
    1DIPC   D3B11843  11.214  21.093   4.270 -0.0632 -0.0590  0.2333
    1DIPC   C4B11844  11.370  21.028   3.764  0.0144  0.2915  0.1906
    1DIPC   NC311845  27.357  19.093   6.190 -0.0034 -0.1927 -0.0960
    1DIPC   PO411846  27.776  19.272   6.199  0.0770 -0.1432  0.3062
    1DIPC   GL111847  27.757  18.886   5.879 -0.3717  0.0313  0.1972
    1DIPC   GL211848  27.484  18.800   5.826  0.0060  0.3878 -0.0821
    1DIPC   C1A11849  28.096  18.684   5.436 -0.0846 -0.0840 -0.0327
    1DIPC   D2A11850  28.091  18.600   4.912 -0.1641 -0.0537 -0.2119
    1DIPC   D3A11851  28.378  18.232   4.940  0.1034 -0.0773 -0.0527
    1DIPC   C4A11852  28.745  18.139   4.829 -0.1155 -0.0689 -0.0191
    1DIPC   C1B11853  27.199  18.762   5.463 -0.0684 -0.1487 -0.1721
    1DIPC   D2B11854  26.915  18.986   5.311 -0.1937 -0.1907 -0.1786
    1DIPC   D3B11855  27.257  19.100   5.053  0.0420 -0.2370  0.1683
    1DIPC   C4B11856  27.309  19.406   4.714  0.2743  0.0942 -0.2830
    1DIPC   NC311857   3.108  27.377   6.493 -0.1730 -0.1922  0.0804
    1DIPC   PO411858   2.932  27.676   6.064 -0.0938  0.0828  0.4131
    1DIPC   GL111859   2.732  27.919   5.621  0.1546  0.2811  0.2089
    1DIPC   GL211860   2.756  27.758   5.364  0.3054 -0.0843  0.1306
    1DIPC   C1A11861   2.873  28.262   5.358  0.2052  0.0665 -0.3761
    1DIPC   D2A11862   3.042  28.401   4.968 -0.1165  0.0809 -0.0362
    1DIPC   D3A11863   3.031  28.422   4.533 -0.2647 -0.0313 -0.1997
    1DIPC   C4A11864   3.248  28.352   4.245  0.3331 -0.1283  0.0031
    1DIPC   C1B11865   2.910  27.711   4.914 -0.2940 -0.0820 -0.1319
    1DIPC   D2B11866   3.032  27.541   4.447 -0.1226 -0.1636  0.1604
    1DIPC   D3B11867   2.981  27.816   4.004 -0.2631  0.0284 -0.1510
    1DIPC   C4B11868   2.633  27.759   3.778  0.0400  0.1288 -0.2472
    1DIPC   NC311869  15.200  25.750   6.320  0.0714  0.2014  0.2765
    1DIPC   PO411870  15.270  26.148   6.142  0.1189 -0.3903  0.2465
    1DIPC   GL111871  15.367  26.252   5.720  0.0492  0.0337 -0.0021
    1DIPC   GL211872  15.158  26.128   5.469  0.3146 -0.3782 -0.2748
    1DIPC   C1A11873  15.399  26.549   5.353  0.0690 -0.4906 -0.1823
    1DIPC   D2A11874  15.659  26.911   5.310  0.0548  0.0386  0.2793
    1DIPC   D3A11875  15.473  27.212   5.052  0.0092  0.1241  0.1978
    1DIPC   C4A11876  15.125  27.221   4.773  0.2311 -0.2767  0.2794
    1DIPC   C1B11877  15.243  25.822   5.124  0.0379  0.1918 -0.3636
    1DIPC   D2B11878  15.166  25.675   4.641 -0.2595  0.2499 -0.3238
    1DIPC   D3B11879  14.843  25.510   4.288 -0.1682 -0.0094  0.0037
    1DIPC   C4B11880  14.674  25.553   3.892 -0.0721  0.2336  0.2154
    1DIPC   NC311881   3.831  25.822   5.956 -0.0204 -0.1002 -0.1114
    1DIPC   PO411882   4.163  25.767   5.664  0.1166  0.5441  0.0747
    1DIPC   GL111883   4.013  25.695   5.263  0.3251 -0.1138 -0.0445
    1DIPC   GL211884   3.882  25.389   5.099 -0.0315 -0.2116 -0.2635
    1DIPC   C1A11885   4.245  25.706   4.850  0.2333  0.1903  0.0685
    1DIPC   D2A11886   4.388  25.712   4.454 -0.0450 -0.2720 -0.0365
    1DIPC   D3A11887   4.875  25.576   4.393  0.1890 -0.0661  0.1536
    1DIPC   C4A11888   5.180  25.697   4.632 -0.1153 -0.0815  0.4078
    1DIPC   C1B11889   3.589  25.755   4.848 -0.3551  0.1476  0.1779
    1DIPC   D2B11890   3.775  26.214   4.805  0.2241 -0.0957 -0.0329
    1DIPC   D3B11891   3.989  26.392   4.492 -0.2807  0.0281 -0.0792
    1DIPC   C4B11892   3.967  26.696   4.395  0.0946 -0.1821 -0.2728
    1DIPC   NC311893  29.148   8.028   6.759  0.0137  0.1122  0.0537
    1DIPC   PO411894  29.345   8.178   6.389  0.0501 -0.2601  0.1750
    1DIPC   GL111895  29.386   8.261   5.919 -0.1899  0.0277  0.3825
    1DIPC   GL211896  29.299   7.957   5.883  0.0885 -0.0914  0.2152
    1DIPC   C1A11897  29.455   8.222   5.515  0.2157 -0.1686 -0.1273
    1DIPC   D2A11898  29.409   8.022   5.096 -0.2227 -0.1429  0.0264
    1DIPC   D3A11899  29.342   7.655   5.340  0.1967  0.2877  0.0220
    1DIPC   C4A11900  29.187   7.328   5.188  0.2082 -0.0126 -0.1749
    1DIPC   C1B11901  28.868   7.868   5.980 -0.0533 -0.0311 -0.1008
    1DIPC   D2B11902  28.615   7.491   5.824  0.2546  0.1534 -0.1223
    1DIPC   D3B11903  28.827   7.504   5.450  0.1335 -0.3172 -0.1780
    1DIPC   C4B11904  28.662   7.416   5.106 -0.1140  0.0417 -0.1312
    1DIPC   NC311905  27.942  14.691   6.770 -0.0410  0.0069  0.0319
    1DIPC   PO411906  27.804  14.292   7.036 -0.2468  0.1694  0.1561
    1DIPC   GL111907  27.979  14.284   6.516 -0.2048  0.0342  0.2065
    1DIPC   GL211908  27.781  14.483   6.336  0.2054 -0.0722 -0.1482
    1DIPC   C1A11909  28.393  14.092   6.169 -0.0316  0.3081  0.0570
    1DIPC   D2A11910  28.603  13.795   5.964  0.0732  0.2840  0.0268
    1DIPC   D3A11911  28.713  14.178   5.754  0.1196  0.1774  0.2615
    1DIPC   C4A11912  28.432  14.490   5.764 -0.1692 -0.1679  0.2214
    1DIPC   C1B11913  27.346  14.449   6.153 -0.4087 -0.0971 -0.0148
    1DIPC   D2B11914  27.124  14.640   5.906 -0.0322 -0.1576  0.1157
    1DIPC   D3B11915  26.807  14.858   5.668  0.0599 -0.0495 -0.3081
    1DIPC   C4B11916  26.644  15.229   5.640 -0.1334  0.0604  0.0203
    1DIPC   NC311917  26.585  24.892   6.842  0.1317  0.1835  0.0161
    1DIPC   PO411918  26.183  24.668   6.973 -0.0540  0.3017  0.3683
    1DIPC   GL111919  25.883  24.835   6.725  0.2369  0.1026  0.2204
    1DIPC   GL211920  25.597  25.044   6.776  0.1413  0.0972  0.1541
    1DIPC   C1A11921  25.641  24.847   6.316 -0.1403 -0.1659  0.1012
    1DIPC   D2A11922  25.385  24.586   6.110  0.0399 -0.0038  0.1020
    1DIPC   D3A11923  25.789  24.508   5.935  0.1999  0.0453 -0.2585
    1DIPC   C4A11924  25.882  24.309   5.548  0.1913  0.2080 -0.1682
    1DIPC   C1B11925  25.467  25.296   6.406 -0.0817  0.2932  0.1784
    1DIPC   D2B11926  25.388  25.273   5.967 -0.0804  0.0804 -0.4132
    1DIPC   D3B11927  25.593  24.952   5.837  0.3827 -0.0826  0.2531
    1DIPC   C4B11928  25.485  25.007   5.328  0.2024  0.3124  0.0376
    1DIPC   NC311929  19.763  26.299   5.974 -0.3470  0.1501  0.5350
    1DIPC   PO411930  20.176  26.081   5.895 -0.0241  0.1059 -0.1233
    1DIPC   GL111931  20.100  26.311   5.558  0.2127  0.3373  0.0746
    1DIPC   GL211932  20.081  26.665   5.622  0.1742 -0.0524 -0.1248
    1DIPC   C1A11933  19.856  26.307   5.107  0.1639 -0.1163  0.0269
    1DIPC   D2A11934  20.070  26.206   4.688 -0.3210  0.3774 -0.0998
    1DIPC   D3A11935  20.086  26.676   4.735  0.0800 -0.0005  0.2488
    1DIPC   C4A11936  20.404  26.899   4.442 -0.0554  0.2022  0.1118
    1DIPC   C1B11937  20.368  26.961   5.386 -0.1345 -0.0036 -0.1369
    1DIPC   D2B11938  20.491  27.363   5.364  0.0162  0.1186  0.1840
    1DIPC   D3B11939  20.113  27.380   4.998 -0.0857  0.1095  0.2395
    1DIPC   C4B11940  20.160  27.609   4.690  0.2254  0.4123 -0.0773
    1DIPC   NC311941  10.265  21.118   5.918 -0.0592 -0.1866 -0.0376
    1DIPC   PO411942  10.121  20.797   5.805  0.1410 -0.1008 -0.0634
    1DIPC   GL111943   9.873  20.726   5.484  0.1334  0.1134  0.1571
    1DIPC   GL211944   9.743  20.477   5.298 -0.0716 -0.3739 -0.0827
    1DIPC   C1A11945   9.461  20.772   5.501 -0.0504  0.0835 -0.2393
    1DIPC   D2A11946   9.188  21.144   5.291  0.2433  0.1163 -0.1925
    1DIPC   D3A11947   9.142  20.891   5.011  0.0232 -0.1076  0.0564
    1DIPC   C4A11948   9.278  20.576   5.067 -0.1300  0.0640 -0.0826
    1DIPC   C1B11949   9.498  20.177   4.912  0.2003 -0.1353  0.0491
    1DIPC   D2B11950   9.348  20.267   4.549 -0.1009  0.1942 -0.0060
    1DIPC   D3B11951   9.770  20.410   4.274  0.0310  0.0404 -0.0576
    1DIPC   C4B11952  10.020  20.837   4.217  0.1071 -0.1578 -0.0960
    1DIPC   NC311953  13.563   0.790   7.321  0.0991 -0.4511 -0.0409
    1DIPC   PO411954  13.209   1.182   7.315  0.0557  0.3074 -0.1141
    1DIPC   GL111955  13.124   0.978   6.927 -0.0658  0.0604 -0.1982
    1DIPC   GL211956  12.835   1.087   6.776 -0.0292  0.0277  0.1272
    1DIPC   C1A11957  13.362   0.867   6.546 -0.1104  0.0285 -0.0498
    1DIPC   D2A11958  13.605   0.701   6.214 -0.2925  0.0964 -0.1556
    1DIPC   D3A11959  13.391   0.935   5.940  0.0348  0.0346 -0.0170
    1DIPC   C4A11960  13.503   1.174   5.696 -0.0379  0.0872 -0.1224
    1DIPC   C1B11961  12.991   1.203   6.342 -0.3917 -0.0344 -0.2595
    1DIPC   D2B11962  13.092   1.322   5.981  0.2764 -0.3027 -0.0909
    1DIPC   D3B11963  12.998   1.071   5.602 -0.0365 -0.0253  0.0564
    1DIPC   C4B11964  13.101   1.256   5.253 -0.2328 -0.0833 -0.2130
    1DIPC   NC311965  10.114   8.740   6.599 -0.0317  0.1525  0.0604
    1DIPC   PO411966   9.755   8.491   6.394  0.3776 -0.1492 -0.0269
    1DIPC   GL111967   9.512   8.747   6.060 -0.0023 -0.0750  0.0732
    1DIPC   GL211968   9.283   8.480   5.937  0.0527  0.2722 -0.0496
    1DIPC   C1A11969   9.396   9.128   5.861 -0.1266 -0.0067 -0.1410
    1DIPC   D2A11970   9.110   9.327   6.047  0.0166  0.0787 -0.1165
    1DIPC   D3A11971   8.754   9.476   5.725  0.0913 -0.1243 -0.1056
    1DIPC   C4A11972   8.625   9.512   5.402 -0.1174  0.1672  0.0724
    1DIPC   C1B11973   9.283   8.739   5.565 -0.1065 -0.2147  0.1751
    1DIPC   D2B11974   9.288   9.127   5.313 -0.1283 -0.0382  0.0970
    1DIPC   D3B11975   9.269   9.189   4.880 -0.3226 -0.0215  0.0958
    1DIPC   C4B11976   9.519   9.440   4.625  0.3750  0.3354  0.0834
    1DIPC   NC311977  29.123  15.657   6.575  0.0076 -0.0306  0.2155
    1DIPC   PO411978  28.770  15.795   6.733 -0.0956  0.2448  0.0943
    1DIPC   GL111979  28.750  15.863   6.330  0.3464 -0.1526  0.0264
    1DIPC   GL211980  28.636  15.650   6.193 -0.1115  0.0548  0.0590
    1DIPC   C1A11981  28.773  16.228   6.045  0.0103  0.0162 -0.0297
    1DIPC   D2A11982  28.750  16.571   5.744  0.0485 -0.3366 -0.1786
    1DIPC   D3A11983  29.001  16.562   5.468  0.0518 -0.2726 -0.0069
    1DIPC   C4A11984  28.766  16.392   5.179 -0.2785  0.1716  0.0478
    1DIPC   C1B11985  28.868  15.612   5.736 -0.1105  0.2972 -0.0267
    1DIPC   D2B11986  29.291  15.480   5.600  0.0516  0.1324  0.1251
    1DIPC   D3B11987  29.040  15.292   5.298 -0.0229 -0.0836 -0.2663
    1DIPC   C4B11988  28.976  15.476   4.797 -0.0141 -0.1139 -0.1878
    1DIPC   NC311989   4.570   4.405   6.743  0.0583  0.0018  0.5092
    1DIPC   PO411990   4.800   4.205   6.959 -0.1205  0.2161 -0.0414
    1DIPC   GL111991   4.742   3.984   6.559 -0.0108 -0.0627  0.0286
    1DIPC   GL211992   4.645   4.252   6.258  0.0445  0.0140  0.3978
    1DIPC   C1A11993   4.550   3.757   6.065 -0.2161 -0.4014  0.1178
    1DIPC   D2A11994   4.714   3.513   5.714 -0.2157  0.4140 -0.1442
    1DIPC   D3A11995   4.935   3.738   5.329 -0.1887  0.1980 -0.2221
    1DIPC   C4A11996   5.076   3.785   4.960 -0.1404 -0.1406  0.0684
    1DIPC   C1B11997   4.791   4.217   5.795 -0.4140 -0.0949 -0.1432
    1DIPC   D2B11998   4.639   4.309   5.344  0.1719  0.0486  0.2973
    1DIPC   D3B11999   4.622   4.264   4.960  0.1582  0.1525  0.0135
    1DIPC   C4B12000   5.039   4.241   4.853  0.3789 -0.0445 -0.0623
    1DIPC   NC312001  16.583   1.505   7.911 -0.1165  0.2339  0.0554
    1DIPC   PO412002  16.375   1.278   7.545 -0.1200  0.0151 -0.2653
    1DIPC   GL112003  16.539   1.584   7.169  0.1597  0.2148  0.0659
    1DIPC   GL212004  16.717   1.995   7.332 -0.2713 -0.1910 -0.2295
    1DIPC   C1A12005  16.713   1.664   6.806  0.0591  0.1851  0.1836
    1DIPC   D2A12006  16.938   1.860   6.402 -0.3658 -0.2371  0.2316
    1DIPC   D3A12007  16.537   1.679   6.365  0.1044 -0.3232  0.0356
    1DIPC   C4A12008  16.204   1.973   6.354 -0.0605 -0.2356  0.1122
    1DIPC   C1B12009  16.814   2.103   6.920 -0.0082  0.1006 -0.2132
    1DIPC   D2B12010  16.648   2.327   6.596  0.1058  0.0599  0.0839
    1DIPC   D3B12011  16.743   2.229   6.103  0.1130 -0.0043 -0.0193
    1DIPC   C4B12012  16.998   1.867   5.898 -0.0470  0.1040 -0.0031
    1DIPC   NC312013  25.450   5.812   7.516 -0.0616 -0.1007  0.1711
    1DIPC   PO412014  25.548   5.699   7.049 -0.0009  0.0663  0.1001
    1DIPC   GL112015  25.296   5.615   6.718  0.0802  0.0696  0.4622
    1DIPC   GL212016  25.194   5.328   6.765 -0.0510 -0.0522  0.0426
    1DIPC   C1A12017  25.097   5.673   6.455  0.0312  0.1318  0.1721
    1DIPC   D2A12018  24.922   5.615   6.104  0.1647  0.0220 -0.3427
    1DIPC   D3A12019  24.609   5.836   6.025  0.0785  0.0826  0.0370
    1DIPC   C4A12020  24.700   6.098   5.706  0.0377  0.1015 -0.1396
    1DIPC   C1B12021  25.223   4.965   6.448 -0.1405  0.0366  0.1736
    1DIPC   D2B12022  25.532   4.864   6.128  0.1429  0.1517 -0.0578
    1DIPC   D3B12023  25.682   4.381   5.921 -0.1175  0.1644  0.0460
    1DIPC   C4B12024  25.426   4.198   5.662  0.0469 -0.1212 -0.0437
    1DIPC   NC312025   4.610   5.632   6.489 -0.1007  0.0184 -0.0291
    1DIPC   PO412026   4.201   5.793   6.477  0.1431 -0.4463  0.0308
    1DIPC   GL112027   4.188   5.603   6.025  0.1943  0.0160  0.0953
    1DIPC   GL212028   4.435   5.758   5.970  0.0905  0.2414  0.0516
    1DIPC   C1A12029   3.935   5.609   5.680  0.2627 -0.0228 -0.2065
    1DIPC   D2A12030   3.672   5.542   5.418  0.0143 -0.1112 -0.1518
    1DIPC   D3A12031   3.398   5.677   5.790  0.0951 -0.1763 -0.1903
    1DIPC   C4A12032   3.586   5.601   6.123  0.1037  0.1690  0.1517
    1DIPC   C1B12033   4.724   5.549   5.728 -0.1259  0.4305  0.1376
    1DIPC   D2B12034   4.801   5.266   5.554 -0.1196 -0.1936  0.2264
    1DIPC   D3B12035   4.711   5.254   5.076  0.2848  0.0998  0.2330
    1DIPC   C4B12036   4.720   5.708   4.994  0.0393 -0.0204  0.1573
    1DIPC   NC312037   3.280  24.992   5.931 -0.2326 -0.1315  0.2060
    1DIPC   PO412038   3.313  25.337   5.645  0.0949  0.2252  0.2643
    1DIPC   GL112039   3.128  25.122   5.266  0.0318  0.1805 -0.0631
    1DIPC   GL212040   2.781  25.247   5.200  0.1277  0.2157  0.0509
    1DIPC   C1A12041   3.291  25.218   4.830 -0.0828 -0.0831  0.1584
    1DIPC   D2A12042   3.077  25.164   4.424  0.1321  0.4947  0.0459
    1DIPC   D3A12043   3.403  24.869   4.183 -0.2175 -0.1119 -0.1868
    1DIPC   C4A12044   3.875  24.938   4.172 -0.3095 -0.0973 -0.0370
    1DIPC   C1B12045   2.823  24.988   4.845 -0.3718  0.0224  0.1609
    1DIPC   D2B12046   2.669  24.752   4.551  0.0914  0.1339  0.0246
    1DIPC   D3B12047   2.819  24.680   4.060  0.0358 -0.0957  0.1499
    1DIPC   C4B12048   3.197  24.430   4.171 -0.2720  0.0323 -0.0068
    1DIPC   NC312049  21.737  25.237   6.188 -0.2548  0.0069 -0.1052
    1DIPC   PO412050  21.438  24.845   6.237 -0.0306 -0.1111  0.0487
    1DIPC   GL112051  21.334  24.855   5.783  0.0370 -0.3149  0.2307
    1DIPC   GL212052  21.598  25.195   5.715  0.1976  0.0945  0.0763
    1DIPC   C1A12053  21.276  24.986   5.396  0.1740 -0.0761  0.2402
    1DIPC   D2A12054  21.523  25.311   5.081  0.1804  0.1936 -0.0537
    1DIPC   D3A12055  21.946  25.330   4.925  0.1744  0.3487  0.2690
    1DIPC   C4A12056  22.117  25.511   4.574 -0.2407  0.0332  0.1938
    1DIPC   C1B12057  21.878  25.041   5.426  0.3930 -0.1031  0.0620
    1DIPC   D2B12058  21.823  24.838   5.000  0.1630  0.1878 -0.2374
    1DIPC   D3B12059  21.659  24.935   4.545  0.0927  0.2333  0.2920
    1DIPC   C4B12060  21.651  25.388   4.481  0.0833  0.1250  0.0454
    1DIPC   NC312061  26.642  20.252   6.753 -0.4021 -0.0342  0.1072
    1DIPC   PO412062  26.930  20.174   6.322 -0.3155 -0.0220  0.1479
    1DIPC   GL112063  27.154  19.991   5.968 -0.1591 -0.2227 -0.0027
    1DIPC   GL212064  27.311  20.314   5.806 -0.1063  0.0444 -0.4217
    1DIPC   C1A12065  27.482  19.811   5.693  0.0632 -0.1879 -0.1890
    1DIPC   D2A12066  27.801  19.786   5.439 -0.1517 -0.0921  0.0244
    1DIPC   D3A12067  27.488  19.818   5.090  0.1756 -0.0503  0.0283
    1DIPC   C4A12068  27.154  20.118   5.116 -0.1629  0.1931 -0.5126
    1DIPC   C1B12069  27.185  20.540   5.372 -0.0177 -0.0460  0.4263
    1DIPC   D2B12070  26.814  20.670   4.991  0.2682 -0.2694 -0.4962
    1DIPC   D3B12071  26.501  20.540   4.706  0.1573  0.0925  0.0670
    1DIPC   C4B12072  26.388  20.921   4.478  0.1982 -0.2321  0.0187
    1DIPC   NC312073  19.130  26.246   6.476  0.2092 -0.2413 -0.0954
    1DIPC   PO412074  19.333  26.594   6.180  0.1427  0.0736  0.2361
    1DIPC   GL112075  19.268  26.703   5.718 -0.2739 -0.1238  0.0619
    1DIPC   GL212076  19.532  26.541   5.520  0.0761 -0.4075 -0.2555
    1DIPC   C1A12077  19.466  27.023   5.359 -0.2040  0.3246 -0.0485
    1DIPC   D2A12078  19.641  27.327   5.025  0.2373  0.0939 -0.0121
    1DIPC   D3A12079  19.505  26.999   4.716 -0.1820  0.4445 -0.0708
    1DIPC   C4A12080  19.628  26.868   4.336 -0.0168 -0.0928  0.1804
    1DIPC   C1B12081  19.496  26.607   5.053 -0.3530  0.0973 -0.1006
    1DIPC   D2B12082  19.637  26.491   4.654 -0.3165  0.0639 -0.3107
    1DIPC   D3B12083  19.928  26.482   4.298  0.1714 -0.4038  0.5025
    1DIPC   C4B12084  20.169  26.176   4.171 -0.1002  0.2288 -0.3921
    1DIPC   NC312085   5.511  19.143   6.293  0.0866  0.0048  0.1385
    1DIPC   PO412086   5.397  18.721   6.336  0.0111  0.0945 -0.0318
    1DIPC   GL112087   5.328  18.956   5.918  0.3804 -0.1829  0.0812
    1DIPC   GL212088   5.478  18.935   5.689  0.2680 -0.0889  0.0323
    1DIPC   C1A12089   4.968  19.196   5.643 -0.1386  0.0384  0.0734
    1DIPC   D2A12090   4.538  19.392   5.672 -0.0188  0.0409 -0.0080
    1DIPC   D3A12091   4.365  19.058   5.448 -0.0417  0.0547 -0.2622
    1DIPC   C4A12092   4.050  18.909   5.394  0.2600  0.0628 -0.1627
    1DIPC   C1B12093   5.428  18.707   5.317 -0.1996 -0.0064  0.1151
    1DIPC   D2B12094   5.307  18.488   5.016  0.1756  0.0574 -0.0410
    1DIPC   D3B12095   5.144  18.865   4.774  0.4854 -0.1700 -0.1245
    1DIPC   C4B12096   5.202  19.311   4.675  0.0425  0.0741 -0.2801
    1DIPC   NC312097   5.133   1.624   6.162  0.1050 -0.0660 -0.4028
    1DIPC   PO412098   5.430   1.667   6.461  0.1131  0.0678 -0.2802
    1DIPC   GL112099   5.534   1.805   5.898  0.0751  0.2701 -0.1791
    1DIPC   GL212100   5.250   1.758   5.699 -0.1909 -0.1848  0.0197
    1DIPC   C1A12101   5.749   1.497   5.661 -0.0292  0.1397 -0.5806
    1DIPC   D2A12102   5.849   1.587   5.271 -0.2188  0.2711  0.2359
    1DIPC   D3A12103   6.275   1.393   5.314 -0.0922 -0.2995  0.0637
    1DIPC   C4A12104   6.765   1.271   5.197 -0.1587  0.0843 -0.0138
    1DIPC   C1B12105   5.492   1.964   5.444  0.1422 -0.0993  0.0086
    1DIPC   D2B12106   5.582   2.140   5.057  0.2905 -0.1238  0.0387
    1DIPC   D3B12107   6.053   2.375   5.070 -0.0911  0.1480  0.0253
    1DIPC   C4B12108   6.224   2.665   4.848  0.3602  0.0290 -0.0064
    1DIPC   NC312109  14.289  29.346   6.978 -0.1598 -0.0177  0.1479
    1DIPC   PO412110  14.003  29.004   6.917 -0.0020  0.2035 -0.0780
    1DIPC   GL112111  14.020  29.246   6.534 -0.1006  0.1325  0.0643
    1DIPC   GL212112  14.355  29.209   6.474 -0.0468  0.0628 -0.2706
    1DIPC   C1A12113  14.045  29.225   6.074  0.3276  0.3016 -0.0751
    1DIPC   D2A12114  14.235  29.327   5.605 -0.0328 -0.0289 -0.0891
    1DIPC   D3A12115  14.508  29.620   5.374  0.1184  0.2967  0.1206
    1DIPC   C4A12116  14.841  29.577   5.081 -0.0554  0.1773 -0.0882
    1DIPC   C1B12117  14.463  29.619   6.380 -0.0515 -0.0293 -0.0423
    1DIPC   D2B12118  14.397   0.181   6.187  0.0225 -0.1213  0.1191
    1DIPC   D3B12119  14.316   0.241   5.714  0.2976  0.0769 -0.0440
    1DIPC   C4B12120  14.084   0.480   5.433 -0.0506 -0.0408  0.2174
    1DIPC   NC312121   2.684   3.657   6.567 -0.1112  0.1377  0.0241
    1DIPC   PO412122   2.642   4.074   6.365 -0.3488  0.1223 -0.3995
    1DIPC   GL112123   2.827   4.154   6.094 -0.0621 -0.2070  0.1026
    1DIPC   GL212124   3.089   3.875   5.948 -0.0262 -0.0885  0.0514
    1DIPC   C1A12125   2.814   4.338   5.619 -0.0150 -0.1467  0.1088
    1DIPC   D2A12126   2.609   4.318   5.242  0.2306  0.1235 -0.1528
    1DIPC   D3A12127   2.824   3.985   5.193 -0.1475 -0.1604 -0.0087
    1DIPC   C4A12128   3.155   3.959   5.491 -0.0838 -0.0762  0.1343
    1DIPC   C1B12129   2.726   3.777   5.784  0.1624  0.2235 -0.0749
    1DIPC   D2B12130   2.352   3.766   5.534 -0.1164 -0.2011  0.3093
    1DIPC   D3B12131   2.041   3.802   5.058  0.1588 -0.2111 -0.0242
    1DIPC   C4B12132   2.263   3.625   4.760 -0.2191  0.0230 -0.3519
    1DIPC   NC312133   1.052  26.141   5.679  0.1555  0.1126  0.3686
    1DIPC   PO412134   1.365  25.830   5.614 -0.1122  0.2221 -0.1293
    1DIPC   GL112135   1.122  25.910   5.262  0.1372  0.2276 -0.0552
    1DIPC   GL212136   0.822  25.971   5.212 -0.2178  0.1294 -0.1029
    1DIPC   C1A12137   1.111  26.112   4.833  0.3121  0.3092  0.2295
    1DIPC   D2A12138   1.212  26.500   4.584 -0.1809  0.2124 -0.0191
    1DIPC   D3A12139   1.343  26.244   4.350  0.0095  0.0617  0.1927
    1DIPC   C4A12140   1.325  26.138   3.927 -0.1030 -0.0382  0.2448
    1DIPC   C1B12141   0.543  26.178   4.957 -0.1393  0.1622 -0.0257
    1DIPC   D2B12142   0.170  26.365   4.825 -0.0484  0.2105  0.0451
    1DIPC   D3B12143   0.163  26.058   4.514 -0.0734  0.0462  0.0451
    1DIPC   C4B12144   0.231  26.253   4.062 -0.1131 -0.3855 -0.0013
    1DIPC   NC312145   1.845  16.658   6.790 -0.1764  0.1624  0.2327
    1DIPC   PO412146   2.181  16.944   6.706 -0.0741 -0.3552 -0.2671
    1DIPC   GL112147   2.236  16.618   6.409  0.0605 -0.2916 -0.1297
    1DIPC   GL212148   1.982  16.469   6.349 -0.0903  0.0105  0.0632
    1DIPC   C1A12149   2.221  16.564   5.955 -0.2488  0.1185  0.0184
    1DIPC   D2A12150   2.075  16.405   5.484 -0.0165 -0.1241 -0.4210
    1DIPC   D3A12151   1.639  16.541   5.382  0.2278  0.0731 -0.2194
    1DIPC   C4A12152   1.399  16.154   5.285 -0.0679  0.1970 -0.3490
    1DIPC   C1B12153   1.703  16.539   5.998  0.0315 -0.2324 -0.3955
    1DIPC   D2B12154   1.296  16.312   5.770 -0.2513 -0.1245  0.1607
    1DIPC   D3B12155   1.732  16.112   5.675  0.0375  0.1391 -0.1140
    1DIPC   C4B12156   1.946  16.076   6.041  0.0389 -0.0166 -0.0732
    1DIPC   NC312157  18.010  28.144   7.603 -0.2198 -0.0405 -0.1003
    1DIPC   PO412158  17.771  27.914   7.306 -0.1162 -0.1579  0.0874
    1DIPC   GL112159  17.774  28.131   6.924 -0.0092  0.0606 -0.3428
    1DIPC   GL212160  17.532  28.436   6.794 -0.1579  0.0442  0.0661
    1DIPC   C1A12161  17.667  28.025   6.546 -0.0080 -0.0222 -0.1835
    1DIPC   D2A12162  17.334  28.095   6.105  0.0189  0.1468 -0.1643
    1DIPC   D3A12163  17.199  28.096   5.641  0.1445 -0.1596  0.1184
    1DIPC   C4A12164  17.418  27.887   5.269  0.3196 -0.0320  0.2151
    1DIPC   C1B12165  17.768  28.766   6.565  0.1820  0.0144  0.0022
    1DIPC   D2B12166  17.719  29.144   6.399 -0.2307  0.0082 -0.1171
    1DIPC   D3B12167  17.620  29.458   6.068 -0.0608  0.2132  0.0018
    1DIPC   C4B12168  17.174  29.476   6.194  0.0490  0.3251 -0.0286
    1DIPC   NC312169   3.880  24.469   6.051  0.0828  0.1093  0.1642
    1DIPC   PO412170   3.676  24.769   5.725  0.0845  0.2442 -0.1891
    1DIPC   GL112171   3.564  24.750   5.232 -0.2939  0.2492  0.0735
    1DIPC   GL212172   3.597  24.807   4.932 -0.0404  0.1870  0.0449
    1DIPC   C1A12173   3.611  24.317   4.976  0.3122  0.0818  0.2127
    1DIPC   D2A12174   3.583  23.964   4.965  0.1019  0.0893  0.0740
    1DIPC   D3A12175   3.870  24.116   4.628  0.2198  0.1389  0.2193
    1DIPC   C4A12176   3.867  23.827   4.313  0.4837 -0.5893 -0.1085
    1DIPC   C1B12177   3.741  25.080   4.643  0.3046 -0.1371 -0.1574
    1DIPC   D2B12178   4.004  25.378   4.489 -0.0957 -0.0023  0.1736
    1DIPC   D3B12179   3.930  25.784   4.455 -0.0132  0.0758 -0.1092
    1DIPC   C4B12180   4.155  26.036   4.130  0.0457 -0.1358 -0.1534
    1DIPC   NC312181   7.218  24.798   5.925  0.1765 -0.1381  0.4678
    1DIPC   PO412182   7.286  25.213   5.859  0.0713  0.0506  0.0956
    1DIPC   GL112183   7.483  25.267   5.459 -0.0141  0.2598 -0.2511
    1DIPC   GL212184   7.417  24.949   5.359  0.2320  0.3448  0.0486
    1DIPC   C1A12185   7.338  25.561   5.157  0.1250 -0.1089  0.1482
    1DIPC   D2A12186   7.524  26.011   4.878  0.0928  0.1455  0.1049
    1DIPC   D3A12187   7.515  26.003   4.415  0.1759 -0.1186 -0.1583
    1DIPC   C4A12188   7.240  26.260   4.133  0.0698  0.0935 -0.3917
    1DIPC   C1B12189   7.832  24.950   5.171 -0.1477  0.2218 -0.1316
    1DIPC   D2B12190   8.223  24.776   4.980 -0.2238 -0.2746 -0.0577
    1DIPC   D3B12191   8.303  24.872   4.531  0.1277 -0.1965 -0.0713
    1DIPC   C4B12192   8.002  25.243   4.328 -0.1273  0.2474  0.1996
    1DIPC   NC312193  12.583   4.913   7.571  0.2058  0.0290  0.0942
    1DIPC   PO412194  12.503   5.246   7.718 -0.0150 -0.1669 -0.1253
    1DIPC   GL112195  12.601   5.396   7.242  0.0549 -0.2512 -0.1504
    1DIPC   GL212196  12.243   5.401   7.005 -0.0955  0.0295  0.2273
    1DIPC   C1A12197  12.763   5.500   6.829  0.0541  0.0446  0.1502
    1DIPC   D2A12198  12.895   5.151   6.450 -0.0661  0.3304 -0.2820
    1DIPC   D3A12199  13.055   4.947   6.862  0.0292 -0.0932  0.1095
    1DIPC   C4A12200  13.105   5.255   7.144  0.1225 -0.0415  0.2388
    1DIPC   C1B12201  12.599   5.017   6.957  0.3930 -0.0181  0.1717
    1DIPC   D2B12202  12.688   4.606   6.781 -0.0356  0.0291 -0.0147
    1DIPC   D3B12203  12.954   4.644   6.464  0.0822 -0.3179 -0.1926
    1DIPC   C4B12204  13.189   4.174   6.392  0.1832  0.2219 -0.0391
    1DIPC   NC312205  16.995   4.694   8.182  0.0989  0.1152 -0.2803
    1DIPC   PO412206  16.608   4.740   7.906  0.0192  0.1436  0.1002
    1DIPC   GL112207  16.375   4.785   7.519 -0.0000 -0.4241  0.0803
    1DIPC   GL212208  16.633   4.811   7.266  0.4795 -0.2149  0.1968
    1DIPC   C1A12209  16.169   4.745   7.130 -0.1517 -0.1015  0.0417
    1DIPC   D2A12210  16.067   4.845   6.647  0.0017  0.2624 -0.0156
    1DIPC   D3A12211  16.158   4.750   6.220  0.1374  0.0226 -0.1181
    1DIPC   C4A12212  16.515   5.007   6.071 -0.0889  0.0413 -0.0627
    1DIPC   C1B12213  16.643   4.786   6.873 -0.0688 -0.0137  0.2541
    1DIPC   D2B12214  16.921   4.892   6.514  0.2276 -0.3447 -0.2667
    1DIPC   D3B12215  16.656   4.634   6.385 -0.0543 -0.1407 -0.2178
    1DIPC   C4B12216  16.459   4.455   5.965 -0.0223 -0.1796  0.0740
    1DIPC   NC312217  17.819  26.646   6.661  0.0237  0.0558  0.0895
    1DIPC   PO412218  17.775  27.060   6.581  0.0787  0.0629  0.1663
    1DIPC   GL112219  17.650  27.193   6.185 -0.0511  0.2045 -0.3539
    1DIPC   GL212220  17.309  27.183   6.014 -0.0928  0.0773 -0.0157
    1DIPC   C1A12221  17.609  27.158   5.645  0.1049 -0.2636 -0.5250
    1DIPC   D2A12222  17.488  27.048   5.132  0.1162  0.1914 -0.0851
    1DIPC   D3A12223  17.054  26.953   5.142  0.0345 -0.2405 -0.1866
    1DIPC   C4A12224  16.788  27.026   4.795 -0.3235  0.0490 -0.1212
    1DIPC   C1B12225  17.100  27.175   5.589 -0.1777  0.2868  0.0329
    1DIPC   D2B12226  17.179  27.440   5.225 -0.0676 -0.1019 -0.1407
    1DIPC   D3B12227  17.395  27.638   5.700  0.0588  0.0119  0.0444
    1DIPC   C4B12228  17.727  27.925   5.859 -0.0951  0.4880 -0.2713
    1DIPC   NC312229   2.265   3.910   6.730  0.1063  0.0145 -0.0002
    1DIPC   PO412230   2.236   3.558   6.712  0.2208  0.0291  0.1199
    1DIPC   GL112231   2.167   3.655   6.244 -0.3211 -0.1255  0.2658
    1DIPC   GL212232   2.413   3.528   6.081  0.0618  0.2018  0.3117
    1DIPC   C1A12233   2.106   3.991   5.923 -0.0615  0.0700 -0.0941
    1DIPC   D2A12234   2.298   4.246   5.625  0.1374  0.0423  0.0345
    1DIPC   D3A12235   1.927   4.185   5.317 -0.0915 -0.1679 -0.3517
    1DIPC   C4A12236   1.554   4.394   5.360  0.1873 -0.1900 -0.0254
    1DIPC   C1B12237   1.980   3.430   5.821 -0.2490 -0.0634  0.0772
    1DIPC   D2B12238   1.492   3.464   5.643 -0.0209 -0.0809 -0.1102
    1DIPC   D3B12239   1.589   3.428   5.226  0.1735  0.2219  0.3655
    1DIPC   C4B12240   1.607   3.595   4.889 -0.0086  0.0679  0.0371
    1DIPC   NC312241   0.622   0.833   6.486 -0.1025 -0.2028 -0.1996
    1DIPC   PO412242   0.334   1.133   6.393 -0.1744  0.1724  0.0638
    1DIPC   GL112243   0.230   0.970   5.975 -0.0047 -0.1757  0.1256
    1DIPC   GL212244   0.020   0.674   5.817 -0.0628  0.0679  0.2092
    1DIPC   C1A12245   0.427   1.100   5.587  0.1827  0.1106 -0.0909
    1DIPC   D2A12246   0.490   1.475   5.368  0.0400  0.0791  0.1319
    1DIPC   D3A12247   0.464   1.171   5.097 -0.1078  0.0620  0.1670
    1DIPC   C4A12248   0.137   0.964   4.957  0.0267  0.0128  0.4252
    1DIPC   C1B12249   0.028   0.725   5.398 -0.0679  0.2024  0.1573
    1DIPC   D2B12250  29.612   0.421   5.097  0.1544  0.0345  0.0399
    1DIPC   D3B12251  29.498  29.842   5.281 -0.2269  0.1785  0.1192
    1DIPC   C4B12252  29.336  29.325   5.181 -0.0222  0.1348 -0.0045
    1DIPC   NC312253  28.065  22.076   6.592  0.0306 -0.2461 -0.3978
    1DIPC   PO412254  28.387  21.941   6.426 -0.0372  0.0674  0.1624
    1DIPC   GL112255  28.353  22.303   6.196  0.0061  0.2264  0.0480
    1DIPC   GL212256  28.542  22.437   6.343 -0.0094 -0.1516  0.1294
    1DIPC   C1A12257  28.081  22.533   5.857  0.2904  0.0081 -0.0454
    1DIPC   D2A12258  27.864  22.256   5.483 -0.0875 -0.3246 -0.0560
    1DIPC   D3A12259  27.761  22.074   5.723 -0.0438  0.1095  0.3456
    1DIPC   C4A12260  27.905  21.655   5.795 -0.3331 -0.0078  0.1798
    1DIPC   C1B12261  28.915  22.340   5.948 -0.0587  0.1120  0.4029
    1DIPC   D2B12262  29.142  22.326   5.586 -0.2802 -0.0440  0.0131
    1DIPC   D3B12263  28.880  22.476   5.274  0.1737  0.0064  0.1187
    1DIPC   C4B12264  28.741  22.089   5.280 -0.0515  0.1917  0.1742
    1DIPC   NC312265  25.436   6.755   7.646 -0.0085  0.0286 -0.1119
    1DIPC   PO412266  25.525   6.280   7.512 -0.1788  0.1955 -0.1386
    1DIPC   GL112267  25.328   6.359   7.113  0.1352 -0.2111 -0.0577
    1DIPC   GL212268  25.492   6.604   6.891  0.0464 -0.2552 -0.0742
    1DIPC   C1A12269  25.144   6.167   6.694  0.0020 -0.0585  0.1965
    1DIPC   D2A12270  24.822   6.061   6.518 -0.1160 -0.2681 -0.0281
    1DIPC   D3A12271  24.975   6.154   6.204 -0.0716 -0.3836  0.0894
    1DIPC   C4A12272  25.441   5.970   6.192  0.2360 -0.0059 -0.2032
    1DIPC   C1B12273  25.114   6.755   6.955  0.3622  0.1268  0.1470
    1DIPC   D2B12274  24.764   7.001   7.220  0.0273 -0.1113  0.0003
    1DIPC   D3B12275  24.634   6.824   6.880  0.1003  0.0618  0.2511
    1DIPC   C4B12276  24.553   6.498   6.549  0.0489 -0.1736 -0.2556
    1DIPC   NC312277  15.521  24.867   5.603 -0.0725  0.1710 -0.5419
    1DIPC   PO412278  15.362  24.632   5.335 -0.0209  0.2437 -0.0067
    1DIPC   GL112279  15.532  24.806   4.950 -0.0498 -0.1884  0.0735
    1DIPC   GL212280  15.152  24.770   4.820  0.1662  0.0910 -0.0669
    1DIPC   C1A12281  15.735  25.131   4.914  0.1735 -0.0422 -0.2611
    1DIPC   D2A12282  16.122  25.046   4.726 -0.1876  0.0832 -0.3019
    1DIPC   D3A12283  16.323  25.328   4.422 -0.0046 -0.1456  0.1773
    1DIPC   C4A12284  16.078  25.389   4.034  0.1034 -0.2545  0.0301
    1DIPC   C1B12285  15.018  24.507   4.534 -0.1808 -0.0020  0.4868
    1DIPC   D2B12286  15.171  24.205   4.131 -0.1261  0.2262  0.2937
    1DIPC   D3B12287  15.497  24.384   3.835  0.3028  0.1560 -0.1795
    1DIPC   C4B12288  15.864  24.672   3.918  0.3434  0.0316 -0.2072
    1DIPC   NC312289  17.548  17.116   6.120  0.1663  0.1247 -0.1076
    1DIPC   PO412290  17.107  16.981   6.276  0.1641 -0.0757 -0.3186
    1DIPC   GL112291  16.964  16.839   5.901 -0.0291 -0.1449  0.2824
    1DIPC   GL212292  17.260  17.011   5.713 -0.1466 -0.0636  0.0846
    1DIPC   C1A12293  16.959  16.765   5.387 -0.1668 -0.0873  0.1117
    1DIPC   D2A12294  16.992  16.724   5.005  0.0198 -0.0060  0.3745
    1DIPC   D3A12295  16.768  16.560   4.741  0.3146 -0.2239  0.3855
    1DIPC   C4A12296  17.032  16.259   4.659  0.0184  0.1274 -0.3727
    1DIPC   C1B12297  17.314  17.164   5.329 -0.2750 -0.0818 -0.1949
    1DIPC   D2B12298  17.178  17.171   4.868  0.1337  0.0871  0.1174
    1DIPC   D3B12299  17.445  16.929   4.760  0.2346 -0.2763 -0.0090
    1DIPC   C4B12300  17.489  16.868   4.228  0.0178  0.1139  0.2754
    1DIPC   NC312301  11.344  28.213   7.031 -0.0142 -0.0525  0.0947
    1DIPC   PO412302  11.506  28.620   6.772 -0.2088  0.1260  0.2449
    1DIPC   GL112303  11.244  28.690   6.486  0.0548  0.2269 -0.0948
    1DIPC   GL212304  11.153  28.508   6.223  0.1430 -0.0418 -0.0119
    1DIPC   C1A12305  11.093  29.060   6.305  0.0687 -0.0611  0.0585
    1DIPC   D2A12306  10.967  29.507   6.060  0.1202  0.0464  0.1383
    1DIPC   D3A12307  10.786  29.823   5.827 -0.1199  0.2517 -0.4570
    1DIPC   C4A12308  10.739  29.564   5.340  0.0450 -0.2366 -0.2357
    1DIPC   C1B12309  10.710  28.659   6.232  0.1165  0.4164 -0.0828
    1DIPC   D2B12310  10.182  28.716   6.132  0.0174 -0.2735 -0.3241
    1DIPC   D3B12311  10.396  28.409   5.971  0.4299  0.0797 -0.0249
    1DIPC   C4B12312  10.592  28.413   5.574 -0.2526 -0.2557  0.1580
    1DIPC   NC312313   6.442  24.045   6.424  0.1391  0.2531  0.1191
    1DIPC   PO412314   6.796  23.998   6.104 -0.0727  0.1660  0.1030
    1DIPC   GL112315   6.641  23.967   5.676  0.1266 -0.0858  0.0264
    1DIPC   GL212316   6.689  23.790   5.529 -0.2728 -0.1468 -0.1355
    1DIPC   C1A12317   6.480  23.981   5.154  0.0847  0.0580 -0.0910
    1DIPC   D2A12318   6.430  23.762   4.727 -0.1694 -0.0945 -0.1215
    1DIPC   D3A12319   6.117  23.523   4.443  0.1681 -0.0268  0.1462
    1DIPC   C4A12320   6.019  23.299   4.120 -0.1136  0.1288 -0.1409
    1DIPC   C1B12321   6.486  23.535   5.218 -0.2447 -0.3604 -0.1695
    1DIPC   D2B12322   6.099  23.601   5.300  0.1718 -0.0451 -0.1391
    1DIPC   D3B12323   6.003  23.654   4.938  0.1782 -0.1388 -0.0726
    1DIPC   C4B12324   5.727  23.747   4.606  0.0088 -0.0364  0.2963
    1DIPC   NC312325   1.397  11.091   6.850  0.0969 -0.0493  0.0664
    1DIPC   PO412326   1.546  11.401   6.646  0.0316  0.2804  0.1815
    1DIPC   GL112327   1.501  11.418   6.196 -0.2686 -0.0511 -0.0889
    1DIPC   GL212328   1.239  11.194   6.067 -0.0828  0.1893  0.0696
    1DIPC   C1A12329   1.621  11.369   5.762 -0.0703  0.1184 -0.0931
    1DIPC   D2A12330   1.587  11.343   5.300  0.2455  0.0283  0.0595
    1DIPC   D3A12331   1.773  11.537   4.906  0.0202 -0.1782 -0.1625
    1DIPC   C4A12332   1.547  11.779   4.580  0.0089 -0.2870 -0.1887
    1DIPC   C1B12333   1.179  10.998   5.643  0.1959  0.0290 -0.2903
    1DIPC   D2B12334   1.033  10.769   5.325  0.4195  0.0589  0.1318
    1DIPC   D3B12335   1.151  10.980   4.998  0.1553  0.0267 -0.1571
    1DIPC   C4B12336   0.844  11.198   4.872  0.0869 -0.0616  0.0841
    1DIPC   NC312337   8.410  10.065   6.889 -0.0820 -0.1135 -0.1209
    1DIPC   PO412338   8.525   9.895   6.477 -0.2522 -0.2817 -0.0246
    1DIPC   GL112339   8.934   9.724   6.290  0.2074 -0.1031 -0.1299
    1DIPC   GL212340   9.297   9.702   6.273 -0.2880 -0.1047 -0.0593
    1DIPC   C1A12341   8.989   9.923   5.910  0.0713 -0.4440  0.0224
    1DIPC   D2A12342   9.172  10.355   5.726 -0.2520  0.3782  0.2005
    1DIPC   D3A12343   9.473  10.571   5.987 -0.2300  0.1374 -0.2811
    1DIPC   C4A12344   9.507  10.923   5.950 -0.0729  0.1094  0.2417
    1DIPC   C1B12345   9.339   9.677   5.763 -0.0084 -0.0913  0.0985
    1DIPC   D2B12346   9.168   9.609   5.404 -0.3535  0.3434  0.1171
    1DIPC   D3B12347   8.981  10.018   5.299  0.0703 -0.0937  0.4599
    1DIPC   C4B12348   9.070  10.461   5.235  0.4089  0.1937  0.0708
    1DIPC   NC312349   7.140  18.641   6.669  0.0586 -0.3668  0.0477
    1DIPC   PO412350   7.188  18.727   6.214  0.1440 -0.2920  0.1884
    1DIPC   GL112351   7.070  18.434   5.794  0.3102 -0.1838 -0.1523
    1DIPC   GL212352   7.283  18.413   5.576  0.0197  0.0731  0.2969
    1DIPC   C1A12353   6.786  18.138   5.481  0.0529  0.3521 -0.2601
    1DIPC   D2A12354   6.605  18.323   5.143  0.1054  0.3454  0.0341
    1DIPC   D3A12355   6.684  18.094   4.757  0.3030  0.0873  0.1944
    1DIPC   C4A12356   6.465  17.740   4.661  0.0725  0.2462  0.2375
    1DIPC   C1B12357   7.106  18.612   5.317  0.0845  0.1856  0.0583
    1DIPC   D2B12358   7.052  18.650   4.920  0.1333  0.0717  0.1299
    1DIPC   D3B12359   7.309  18.769   4.485  0.2984 -0.2537 -0.0607
    1DIPC   C4B12360   7.309  19.036   4.334 -0.0520 -0.5077  0.1711
    1DIPC   NC312361   5.364  19.795   6.848  0.0033 -0.2450 -0.0902
    1DIPC   PO412362   5.421  19.607   6.409  0.2345 -0.1140  0.0191
    1DIPC   GL112363   5.559  19.531   5.896  0.1365  0.2402 -0.0215
    1DIPC   GL212364   5.916  19.303   5.830  0.2237 -0.3055 -0.0115
    1DIPC   C1A12365   5.424  19.462   5.487 -0.2802 -0.2043  0.2435
    1DIPC   D2A12366   5.121  19.417   5.175 -0.2655 -0.1213  0.3191
    1DIPC   D3A12367   4.827  19.709   5.333  0.1327 -0.1001 -0.3455
    1DIPC   C4A12368   4.810  19.783   5.704  0.1516  0.2984  0.2721
    1DIPC   C1B12369   5.814  19.190   5.435  0.2202  0.2544  0.1147
    1DIPC   D2B12370   5.550  19.074   4.997  0.0363  0.0143  0.2431
    1DIPC   D3B12371   5.655  19.019   4.573 -0.1672  0.1750 -0.2725
    1DIPC   C4B12372   5.631  19.434   4.349 -0.2768  0.0589 -0.2219
    1DIPC   NC312373  11.949  20.163   6.194 -0.2742 -0.2479  0.0765
    1DIPC   PO412374  11.575  20.121   5.857  0.0855 -0.1047  0.5686
    1DIPC   GL112375  11.455  20.296   5.454  0.0930  0.1531  0.2013
    1DIPC   GL212376  11.325  20.072   5.216  0.0365  0.0026  0.1086
    1DIPC   C1A12377  11.296  20.557   5.043  0.0465  0.1159 -0.1018
    1DIPC   D2A12378  11.153  20.291   4.734  0.2733  0.1314  0.2349
    1DIPC   D3A12379  10.771  20.555   4.429 -0.3931  0.1194 -0.0309
    1DIPC   C4A12380  10.858  20.717   4.105  0.4962  0.0938 -0.1763
    1DIPC   C1B12381  11.339  19.819   4.872 -0.1820  0.1160 -0.2276
    1DIPC   D2B12382  11.245  19.637   4.413  0.0499 -0.0196 -0.0231
    1DIPC   D3B12383  11.287  19.176   4.403  0.0221  0.2784 -0.0346
    1DIPC   C4B12384  11.714  18.897   4.326  0.0882  0.0286 -0.0168
    1DIPC   NC312385   2.031   7.969   6.364  0.0738 -0.1296 -0.1736
    1DIPC   PO412386   1.689   8.283   6.391 -0.0857 -0.2300 -0.1159
    1DIPC   GL112387   1.647   8.140   6.067  0.1239  0.0161 -0.0548
    1DIPC   GL212388   1.447   8.358   5.896 -0.2958 -0.1573  0.0616
    1DIPC   C1A12389   1.789   7.957   5.706  0.1289  0.1181 -0.0101
    1DIPC   D2A12390   1.898   7.868   5.375 -0.0670 -0.3254 -0.1469
    1DIPC   D3A12391   2.116   7.742   5.200  0.0951  0.2560  0.2947
    1DIPC   C4A12392   2.167   7.470   5.023  0.1799  0.3233  0.1056
    1DIPC   C1B12393   1.317   8.710   5.494  0.0343 -0.3727 -0.2173
    1DIPC   D2B12394   1.027   9.039   5.355 -0.2579 -0.0210  0.2462
    1DIPC   D3B12395   0.688   9.053   5.222 -0.1494  0.0598 -0.0594
    1DIPC   C4B12396   0.433   9.259   4.998  0.2800  0.0660  0.2338
    1DIPC   NC312397   8.635  14.677   6.406  0.1629 -0.1657  0.0189
    1DIPC   PO412398   8.874  14.232   6.222 -0.0963 -0.0394  0.1790
    1DIPC   GL112399   9.154  14.077   5.892  0.0511 -0.1892 -0.1860
    1DIPC   GL212400   9.521  14.231   5.840 -0.0494  0.2405  0.4783
    1DIPC   C1A12401   9.024  14.052   5.529 -0.0458 -0.2397  0.1126
    1DIPC   D2A12402   8.808  14.224   5.251 -0.1842  0.2033  0.0878
    1DIPC   D3A12403   8.667  14.551   5.407  0.0032 -0.0062  0.1389
    1DIPC   C4A12404   8.903  14.943   5.673 -0.1216 -0.1059  0.3029
    1DIPC   C1B12405   9.499  14.081   5.417 -0.0227  0.0816 -0.2706
    1DIPC   D2B12406   9.434  13.579   5.351 -0.3018 -0.0074  0.1074
    1DIPC   D3B12407   9.027  13.517   5.290 -0.1014  0.1175 -0.1171
    1DIPC   C4B12408   8.939  13.490   4.918  0.2124 -0.0483 -0.2462
    1DIPC   NC312409   9.088  11.634   6.378 -0.1621 -0.1037 -0.3787
    1DIPC   PO412410   8.879  11.827   6.120 -0.1441 -0.0850 -0.2246
    1DIPC   GL112411   8.706  11.837   5.710 -0.0058 -0.2298 -0.0133
    1DIPC   GL212412   8.326  11.720   5.625 -0.0576 -0.0149  0.0432
    1DIPC   C1A12413   8.700  11.812   5.235 -0.2453 -0.4161  0.1700
    1DIPC   D2A12414   8.944  11.948   4.813 -0.0506  0.1170  0.1685
    1DIPC   D3A12415   9.291  11.824   5.036  0.0419 -0.1475  0.0003
    1DIPC   C4A12416   9.712  11.818   4.853  0.3191 -0.1858  0.1080
    1DIPC   C1B12417   8.180  11.761   5.211 -0.1073  0.0242  0.2743
    1DIPC   D2B12418   8.046  11.670   4.848 -0.0085  0.3615  0.0358
    1DIPC   D3B12419   7.754  12.061   4.778  0.1314  0.2510 -0.3471
    1DIPC   C4B12420   7.309  12.058   4.928  0.2069  0.1786 -0.1395
    1DIPC   NC312421   8.507   4.723   7.520 -0.3376 -0.0635  0.4147
    1DIPC   PO412422   9.006   4.723   7.487  0.3864  0.3267  0.0507
    1DIPC   GL112423   9.102   4.417   7.224  0.1629  0.1062  0.0106
    1DIPC   GL212424   8.934   4.266   6.936  0.1065 -0.1339 -0.0351
    1DIPC   C1A12425   9.442   4.323   6.888  0.0269  0.0221  0.3297
    1DIPC   D2A12426   9.862   4.467   6.734  0.2330  0.2367 -0.1721
    1DIPC   D3A12427   9.690   4.324   6.362 -0.1785  0.0423  0.1173
    1DIPC   C4A12428  10.054   4.424   6.159 -0.1215  0.1997  0.0852
    1DIPC   C1B12429   8.698   4.333   6.499  0.2377  0.2104  0.0695
    1DIPC   D2B12430   8.765   4.251   5.972  0.0821 -0.0118 -0.0636
    1DIPC   D3B12431   8.798   4.154   5.529 -0.1757  0.1275  0.0808
    1DIPC   C4B12432   8.838   4.185   5.092 -0.1686  0.0007 -0.0077
    1DIPC   NC312433  13.365   0.334   7.491 -0.0833 -0.0632  0.1388
    1DIPC   PO412434  13.684   0.272   7.207  0.2827 -0.1145  0.4034
    1DIPC   GL112435  13.999   0.283   6.881  0.1430 -0.1445  0.1629
    1DIPC   GL212436  14.182  29.846   6.832 -0.0265 -0.0321 -0.1902
    1DIPC   C1A12437  14.016   0.313   6.464  0.1393 -0.1559 -0.3806
    1DIPC   D2A12438  14.090   0.599   6.174  0.2139  0.2276 -0.3193
    1DIPC   D3A12439  13.739   0.285   5.989 -0.2181  0.3522  0.2293
    1DIPC   C4A12440  13.626   0.349   5.592  0.1298 -0.2223 -0.2220
    1DIPC   C1B12441  13.890  29.702   6.392 -0.0867 -0.0866 -0.3689
    1DIPC   D2B12442  14.035  29.673   5.969 -0.2544  0.0765  0.3154
    1DIPC   D3B12443  13.912  29.735   5.516 -0.0052  0.1163  0.0592
    1DIPC   C4B12444  14.132   0.033   5.164 -0.0163  0.0151  0.1542
    1DIPC   NC312445   7.852  11.325   6.477  0.0199 -0.1801 -0.0268
    1DIPC   PO412446   8.175  11.141   6.179 -0.0189 -0.2472  0.3261
    1DIPC   GL112447   8.435  11.099   5.793  0.2168  0.1039  0.0166
    1DIPC   GL212448   8.639  11.352   5.589 -0.0645  0.0893 -0.1625
    1DIPC   C1A12449   8.681  10.892   5.379  0.0408  0.0483 -0.2942
    1DIPC   D2A12450   8.625  10.793   5.006 -0.2182 -0.1052 -0.0964
    1DIPC   D3A12451   9.051  10.914   5.020  0.1017  0.2653  0.1720
    1DIPC   C4A12452   9.352  11.084   4.571  0.1716  0.2750 -0.3029
    1DIPC   C1B12453   8.568  11.335   5.157 -0.2023 -0.2451 -0.0057
    1DIPC   D2B12454   8.613  11.517   4.772  0.0044  0.0420  0.1297
    1DIPC   D3B12455   8.337  11.511   4.352  0.0971 -0.1939  0.1118
    1DIPC   C4B12456   8.036  11.839   4.370 -0.1871  0.1336  0.1803
    1DIPC   NC312457   9.472  22.373   5.762  0.1156  0.2833 -0.4046
    1DIPC   PO412458   9.125  22.362   5.461 -0.1926 -0.1284 -0.2553
    1DIPC   GL112459   9.298  22.349   5.159  0.1355 -0.1252  0.1172
    1DIPC   GL212460   9.519  22.179   5.132  0.0060  0.1587 -0.0893
    1DIPC   C1A12461   8.961  22.199   4.674  0.0344 -0.0256  0.1106
    1DIPC   D2A12462   8.845  21.719   4.536  0.0754 -0.1286 -0.0835
    1DIPC   D3A12463   8.962  21.717   4.080 -0.1643  0.1816 -0.0668
    1DIPC   C4A12464   9.380  21.418   3.950  0.0952  0.1661 -0.5089
    1DIPC   C1B12465   9.587  22.240   4.768 -0.1143 -0.1317 -0.1390
    1DIPC   D2B12466   9.775  22.337   4.509  0.1300 -0.2116 -0.1260
    1DIPC   D3B12467   9.519  22.396   4.231  0.3265 -0.0723 -0.0348
    1DIPC   C4B12468   9.310  21.982   4.287  0.2705  0.2502  0.0540
    1DIPC   NC312469   4.447  29.817   6.268 -0.2187 -0.3936 -0.0809
    1DIPC   PO412470   4.944  29.693   6.221 -0.0825 -0.2139 -0.0188
    1DIPC   GL112471   4.842  29.735   5.693 -0.1274 -0.6489 -0.2872
    1DIPC   GL212472   4.504  29.698   5.661  0.1664  0.1949  0.0960
    1DIPC   C1A12473   4.950  29.694   5.373 -0.0026  0.4131  0.1067
    1DIPC   D2A12474   5.204   0.072   5.148 -0.1875  0.1644  0.2033
    1DIPC   D3A12475   5.089  29.774   4.672  0.0403 -0.0730 -0.1997
    1DIPC   C4A12476   5.186   0.025   4.233  0.0549 -0.0296 -0.3948
    1DIPC   C1B12477   4.503  29.441   5.231  0.1165 -0.0102 -0.1045
    1DIPC   D2B12478   4.148  29.280   4.953  0.2295  0.1415  0.1454
    1DIPC   D3B12479   4.084  29.667   4.898  0.0329 -0.0369 -0.0651
    1DIPC   C4B12480   4.202   0.119   5.145  0.1265  0.2387 -0.0272
    1DIPC   NC312481   9.126  28.535   6.345  0.0923 -0.0162  0.0035
    1DIPC   PO412482   9.534  28.366   6.520 -0.0829 -0.0182 -0.0101
    1DIPC   GL112483   9.592  28.497   6.102  0.0134  0.0050 -0.0097
    1DIPC   GL212484   9.321  28.746   5.890 -0.2418 -0.0070  0.2736
    1DIPC   C1A12485   9.891  28.504   5.747 -0.2107  0.1124 -0.1081
    1DIPC   D2A12486  10.144  28.584   5.285 -0.0763  0.0035 -0.1366
    1DIPC   D3A12487  10.143  28.597   4.819 -0.2972 -0.2627  0.3384
    1DIPC   C4A12488  10.320  28.943   4.566 -0.1981 -0.3196  0.0324
    1DIPC   C1B12489   9.302  28.666   5.452 -0.0152  0.2925  0.2918
    1DIPC   D2B12490   9.345  28.230   5.246 -0.0837 -0.0678 -0.1420
    1DIPC   D3B12491   9.522  27.980   5.001 -0.2321 -0.0599  0.0847
    1DIPC   C4B12492   9.460  27.818   4.651  0.2008 -0.0328  0.1124
    1DIPC   NC312493  16.251   3.211   8.557 -0.3561  0.0654 -0.1169
    1DIPC   PO412494  16.346   3.032   8.166  0.0308 -0.2031  0.0989
    1DIPC   GL112495  16.529   3.271   7.776  0.4046 -0.2145 -0.2436
    1DIPC   GL212496  16.270   3.374   7.686  0.1767  0.2422 -0.1066
    1DIPC   C1A12497  16.785   3.374   7.466  0.0237  0.1693  0.2133
    1DIPC   D2A12498  17.065   3.438   7.149  0.0463  0.0103  0.2477
    1DIPC   D3A12499  17.096   3.284   6.684 -0.0083 -0.1725 -0.1560
    1DIPC   C4A12500  17.471   3.275   6.581  0.0251  0.0934 -0.1554
    1DIPC   C1B12501  16.402   3.133   7.321  0.0197 -0.3098  0.1398
    1DIPC   D2B12502  16.631   3.266   6.938 -0.1463  0.0233 -0.0262
    1DIPC   D3B12503  16.789   2.897   6.847 -0.2646  0.2006  0.2023
    1DIPC   C4B12504  16.982   2.864   6.439  0.2314 -0.2344  0.0329
    1DIPC   NC312505  12.693  22.792   5.622 -0.1084  0.3625 -0.1371
    1DIPC   PO412506  12.281  22.856   5.424  0.4333 -0.0183 -0.0429
    1DIPC   GL112507  12.125  22.877   4.953  0.2461 -0.0755  0.1459
    1DIPC   GL212508  11.961  23.206   4.825  0.1546 -0.0711  0.0837
    1DIPC   C1A12509  12.408  22.952   4.661  0.1137  0.0091 -0.2490
    1DIPC   D2A12510  12.571  22.685   4.380 -0.0107 -0.0565 -0.0344
    1DIPC   D3A12511  12.462  22.897   4.066 -0.1824  0.3505 -0.1386
    1DIPC   C4A12512  12.265  22.748   3.672  0.2085 -0.2612  0.0539
    1DIPC   C1B12513  12.096  23.101   4.335 -0.1287 -0.0724  0.1802
    1DIPC   D2B12514  12.179  23.265   4.104 -0.1393  0.0265 -0.0804
    1DIPC   D3B12515  12.225  23.705   4.028 -0.0886  0.3354  0.1710
    1DIPC   C4B12516  12.633  23.898   3.951  0.0043  0.0709  0.1523
    1DIPC   NC312517  29.814   0.316   6.165 -0.0190  0.0366 -0.4245
    1DIPC   PO412518   0.360   0.547   6.161 -0.3016 -0.2232 -0.1232
    1DIPC   GL112519   0.555   0.646   5.733  0.0363  0.3404 -0.1053
    1DIPC   GL212520   0.538   0.455   5.494  0.1057  0.0235  0.0789
    1DIPC   C1A12521   0.922   0.891   5.585 -0.1436  0.1537 -0.0625
    1DIPC   D2A12522   1.371   0.872   5.385  0.1138 -0.1750 -0.1224
    1DIPC   D3A12523   1.778   1.040   5.364  0.1731  0.2978 -0.2321
    1DIPC   C4A12524   1.827   1.351   5.732 -0.2110 -0.3315  0.0672
    1DIPC   C1B12525   0.690   0.718   5.020 -0.0730 -0.0523 -0.0139
    1DIPC   D2B12526   0.841   0.667   4.522  0.0038 -0.2931 -0.0390
    1DIPC   D3B12527   0.436   0.820   4.536 -0.0590 -0.2473  0.3397
    1DIPC   C4B12528   0.017   0.609   4.569  0.0199 -0.3215  0.0993
    1DIPC   NC312529   7.832  16.241   6.198 -0.1134  0.1893 -0.3072
    1DIPC   PO412530   7.582  16.467   6.068  0.0854 -0.0175  0.2932
    1DIPC   GL112531   7.471  16.342   5.641  0.0788 -0.0280  0.1510
    1DIPC   GL212532   7.701  16.539   5.494  0.1051 -0.1937  0.1642
    1DIPC   C1A12533   7.594  16.114   5.254 -0.2200 -0.1992  0.2205
    1DIPC   D2A12534   7.412  15.680   5.166  0.0673  0.2449 -0.4319
    1DIPC   D3A12535   6.948  15.563   5.313 -0.1178 -0.3552 -0.3602
    1DIPC   C4A12536   6.605  15.789   5.119 -0.0814  0.1873  0.0785
    1DIPC   C1B12537   7.690  16.766   5.107  0.3714 -0.4944  0.0887
    1DIPC   D2B12538   7.826  16.790   4.652 -0.0272  0.0129 -0.1177
    1DIPC   D3B12539   7.495  17.011   4.548 -0.3283 -0.0443  0.2238
    1DIPC   C4B12540   7.255  16.929   4.232  0.0610  0.1939 -0.2085
    1DIPC   NC312541   9.646  17.449   5.915 -0.1299 -0.3129 -0.3114
    1DIPC   PO412542   9.326  17.704   5.953 -0.2715  0.1302  0.3684
    1DIPC   GL112543   9.435  17.692   5.491  0.0611 -0.2755 -0.1237
    1DIPC   GL212544   9.248  17.516   5.383  0.2944  0.0926 -0.0067
    1DIPC   C1A12545   9.476  17.930   5.096 -0.0217 -0.1083  0.2252
    1DIPC   D2A12546   9.381  18.159   4.633  0.0456  0.1674  0.1783
    1DIPC   D3A12547   9.683  17.965   4.316 -0.3054 -0.0482 -0.2164
    1DIPC   C4A12548  10.072  18.155   4.251 -0.0563 -0.1938 -0.3142
    1DIPC   C1B12549   8.956  17.901   5.251  0.0889 -0.3149 -0.1562
    1DIPC   D2B12550   9.123  18.291   5.121  0.0141 -0.0666  0.2585
    1DIPC   D3B12551   8.980  18.241   4.865 -0.0885  0.2016 -0.0005
    1DIPC   C4B12552   8.766  18.373   4.484  0.0850 -0.0304 -0.0007
    1DIPC   NC312553  20.079   2.871   8.555 -0.0232  0.0599  0.0651
    1DIPC   PO412554  19.952   3.037   8.110  0.2453 -0.0975  0.0847
    1DIPC   GL112555  19.934   3.092   7.595  0.0171 -0.1059 -0.0376
    1DIPC   GL212556  20.236   3.027   7.580  0.1061 -0.2835  0.0145
    1DIPC   C1A12557  20.065   3.155   7.107  0.0663 -0.1340 -0.2463
    1DIPC   D2A12558  20.081   3.385   6.673  0.0947  0.1374  0.2062
    1DIPC   D3A12559  20.044   3.803   6.432  0.0184 -0.0086 -0.0229
    1DIPC   C4A12560  20.452   3.958   6.284 -0.1275  0.0822  0.2263
    1DIPC   C1B12561  20.525   2.751   7.513  0.1276 -0.3089 -0.0058
    1DIPC   D2B12562  20.856   2.794   7.287 -0.0570  0.1797  0.1599
    1DIPC   D3B12563  20.786   3.134   7.158 -0.0392  0.1450  0.0548
    1DIPC   C4B12564  20.427   2.959   6.825 -0.5566 -0.1580 -0.3039
    1DIPC   NC312565  26.908  18.228   6.426  0.3235  0.1683  0.2705
    1DIPC   PO412566  26.420  18.125   6.281 -0.0655 -0.2600 -0.0496
    1DIPC   GL112567  26.707  18.118   5.875 -0.2286 -0.2429  0.1186
    1DIPC   GL212568  27.033  18.086   5.941 -0.2997 -0.0711  0.1484
    1DIPC   C1A12569  26.865  17.772   5.626  0.1910 -0.1125  0.0068
    1DIPC   D2A12570  26.611  17.477   5.330  0.1175 -0.0125 -0.0213
    1DIPC   D3A12571  26.893  17.087   5.027 -0.0926  0.1510 -0.0791
    1DIPC   C4A12572  26.737  17.086   4.597 -0.2175 -0.2585 -0.2350
    1DIPC   C1B12573  27.111  18.308   5.604 -0.0936  0.2236  0.1075
    1DIPC   D2B12574  27.172  18.257   5.226  0.2569  0.2600 -0.1517
    1DIPC   D3B12575  26.704  18.079   5.184 -0.1679  0.1170 -0.1598
    1DIPC   C4B12576  26.748  17.714   4.940  0.1501 -0.0671  0.0729
    1DIPC   NC312577  28.674  16.325   6.730  0.1982  0.0307  0.2890
    1DIPC   PO412578  28.228  16.495   6.874 -0.3228  0.2929 -0.0030
    1DIPC   GL112579  28.036  16.345   6.465 -0.0156 -0.0868  0.0528
    1DIPC   GL212580  28.325  16.319   6.176 -0.2158 -0.1826 -0.0455
    1DIPC   C1A12581  27.906  16.628   6.107  0.2848  0.0174  0.1216
    1DIPC   D2A12582  27.787  16.736   5.747 -0.0250  0.1881 -0.0966
    1DIPC   D3A12583  27.921  16.667   5.316  0.2449  0.1656  0.0236
    1DIPC   C4A12584  28.368  16.697   5.151 -0.0199  0.0334  0.0216
    1DIPC   C1B12585  28.021  16.261   5.798 -0.2846 -0.4544  0.0845
    1DIPC   D2B12586  27.762  16.169   5.471 -0.1055  0.1424  0.1645
    1DIPC   D3B12587  27.367  16.197   5.448 -0.0592  0.1829 -0.1623
    1DIPC   C4B12588  26.950  16.029   5.475  0.0998  0.0483 -0.0116
    1DIPC   NC312589  26.703   2.495   6.776  0.0792  0.2074 -0.0140
    1DIPC   PO412590  26.378   2.822   6.888  0.2079  0.0380  0.1082
    1DIPC   GL112591  26.496   2.870   6.438  0.0346  0.1980  0.0827
    1DIPC   GL212592  26.569   2.641   6.305  0.0671  0.0856  0.1411
    1DIPC   C1A12593  26.173   2.919   6.065  0.0158 -0.1799 -0.2931
    1DIPC   D2A12594  25.683   2.900   6.116  0.2486 -0.0619 -0.5113
    1DIPC   D3A12595  25.719   2.970   5.714 -0.0415 -0.3965  0.0034
    1DIPC   C4A12596  25.714   2.886   5.246  0.4134 -0.2771  0.3215
    1DIPC   C1B12597  26.738   2.806   5.944  0.0542  0.0098  0.1377
    1DIPC   D2B12598  27.124   2.995   5.725 -0.0516 -0.1281 -0.2936
    1DIPC   D3B12599  27.218   2.868   5.283 -0.1050  0.1684  0.2518
    1DIPC   C4B12600  27.015   2.916   4.917 -0.0147  0.4647 -0.0054
    1DIPC   NC312601  24.921  20.329   6.470  0.2118 -0.2168 -0.0693
    1DIPC   PO412602  25.317  20.473   6.452 -0.0216  0.0924  0.0867
    1DIPC   GL112603  25.555  20.685   6.108  0.1241 -0.1706 -0.1911
    1DIPC   GL212604  25.530  21.102   6.084 -0.1034  0.0245  0.1154
    1DIPC   C1A12605  25.453  20.819   5.693 -0.0296 -0.2052 -0.2453
    1DIPC   D2A12606  25.489  21.201   5.445 -0.1315 -0.0287  0.0710
    1DIPC   D3A12607  25.105  21.469   5.349 -0.0312  0.1500 -0.2373
    1DIPC   C4A12608  25.096  21.843   5.074  0.5075  0.2152 -0.2474
    1DIPC   C1B12609  25.494  21.474   5.889  0.0947  0.4079 -0.2822
    1DIPC   D2B12610  25.535  21.815   5.578 -0.1113  0.1398 -0.2645
    1DIPC   D3B12611  25.595  21.694   5.232 -0.1298  0.1476 -0.0799
    1DIPC   C4B12612  25.894  21.758   4.983 -0.2072 -0.2294 -0.0061
    1DIPC   NC312613  17.526  17.755   6.166  0.2351  0.1212 -0.1882
    1DIPC   PO412614  17.251  17.443   5.959  0.1584 -0.0652 -0.0842
    1DIPC   GL112615  17.561  17.535   5.712  0.4189  0.3282  0.0308
    1DIPC   GL212616  17.356  17.864   5.583 -0.1752 -0.1287  0.0110
    1DIPC   C1A12617  17.787  17.492   5.346  0.0976 -0.0594  0.0508
    1DIPC   D2A12618  17.834  17.372   4.915 -0.0629  0.0217 -0.0608
    1DIPC   D3A12619  17.682  17.887   5.088  0.1058 -0.1639 -0.0834
    1DIPC   C4A12620  17.467  18.150   4.777  0.0000  0.0213  0.0514
    1DIPC   C1B12621  17.151  17.772   5.299 -0.1749 -0.3558 -0.1411
    1DIPC   D2B12622  17.345  17.683   4.847  0.0477  0.1486 -0.1061
    1DIPC   D3B12623  17.000  17.544   4.576  0.1057 -0.3708 -0.1766
    1DIPC   C4B12624  16.857  17.883   4.239 -0.1245  0.0958 -0.0683
    1DIPC   NC312625   8.811   6.403   7.414 -0.3947 -0.1076  0.0347
    1DIPC   PO412626   8.828   6.291   7.011 -0.2705  0.1426  0.1687
    1DIPC   GL112627   8.991   6.292   6.628 -0.1399 -0.0769  0.1023
    1DIPC   GL212628   8.939   6.019   6.355  0.0703  0.3419  0.0557
    1DIPC   C1A12629   8.988   6.505   6.117 -0.6027 -0.4509  0.0409
    1DIPC   D2A12630   9.195   6.787   5.784 -0.2806  0.0480 -0.0745
    1DIPC   D3A12631   9.509   7.209   5.812  0.0653 -0.0866  0.0447
    1DIPC   C4A12632   9.315   7.440   6.137 -0.0049  0.1239 -0.0957
    1DIPC   C1B12633   8.996   6.042   5.851  0.0926 -0.0866  0.0925
    1DIPC   D2B12634   9.073   6.220   5.513 -0.1130 -0.1182 -0.1678
    1DIPC   D3B12635   9.275   6.560   5.239  0.2042  0.1685 -0.0198
    1DIPC   C4B12636   9.682   6.709   5.072 -0.0331 -0.1153 -0.4141
    1DIPC   NC312637   3.155  18.957   6.772  0.0268  0.0903 -0.1002
    1DIPC   PO412638   3.185  19.358   6.668 -0.2245  0.1510 -0.1029
    1DIPC   GL112639   3.026  19.243   6.179  0.2528  0.2119  0.1407
    1DIPC   GL212640   3.327  19.329   6.163  0.1341  0.3045  0.1405
    1DIPC   C1A12641   3.130  19.075   5.764  0.0065  0.1788 -0.1016
    1DIPC   D2A12642   2.948  18.884   5.440 -0.2339 -0.2811  0.2473
    1DIPC   D3A12643   3.266  19.128   5.224 -0.1462 -0.4268  0.2409
    1DIPC   C4A12644   3.571  18.868   4.941 -0.1516  0.0441 -0.0339
    1DIPC   C1B12645   3.515  19.586   5.852  0.1103 -0.0867  0.0805
    1DIPC   D2B12646   3.631  19.506   5.514 -0.3482  0.1040 -0.0752
    1DIPC   D3B12647   3.679  19.433   5.077 -0.0965 -0.0628  0.0359
    1DIPC   C4B12648   3.995  19.638   4.884 -0.1537  0.2749  0.0947
    1DIPC   NC312649  12.413  21.483   5.585  0.0998 -0.2938  0.3259
    1DIPC   PO412650  12.862  21.383   5.466 -0.3232  0.1506 -0.0311
    1DIPC   GL112651  12.642  21.650   5.136 -0.1873 -0.1057 -0.3030
    1DIPC   GL212652  13.005  21.733   4.867  0.0061  0.1089 -0.0282
    1DIPC   C1A12653  12.601  21.994   4.866 -0.1155  0.1244  0.0173
    1DIPC   D2A12654  12.524  22.116   4.475 -0.3820 -0.0832  0.1035
    1DIPC   D3A12655  12.937  22.224   4.355 -0.0779 -0.2154  0.5756
    1DIPC   C4A12656  13.081  22.714   4.222  0.2372 -0.0066 -0.3016
    1DIPC   C1B12657  12.797  21.711   4.479 -0.0259 -0.0174 -0.2075
    1DIPC   D2B12658  12.755  21.668   3.981 -0.1831 -0.2055  0.0293
    1DIPC   D3B12659  12.845  21.711   3.491  0.2113 -0.0117 -0.0550
    1DIPC   C4B12660  13.143  21.490   3.223  0.0575  0.0626 -0.4915
    1DIPC   NC312661  14.066  20.394   5.900  0.2174  0.0512 -0.0928
    1DIPC   PO412662  13.640  20.566   5.800 -0.1568  0.2753 -0.0367
    1DIPC   GL112663  13.928  20.375   5.357 -0.1127  0.0961  0.4770
    1DIPC   GL212664  13.778  20.543   5.023  0.1554  0.2660 -0.1752
    1DIPC   C1A12665  14.199  20.346   4.939  0.3813  0.1538 -0.1076
    1DIPC   D2A12666  14.596  20.220   4.833 -0.0345 -0.2407 -0.1183
    1DIPC   D3A12667  14.752  20.033   4.478 -0.0265 -0.1124  0.0009
    1DIPC   C4A12668  14.978  20.397   4.271  0.0055  0.0757  0.0775
    1DIPC   C1B12669  13.605  20.488   4.488 -0.0581  0.1100  0.0525
    1DIPC   D2B12670  13.364  20.286   4.085  0.3388  0.0887 -0.4466
    1DIPC   D3B12671  13.642  20.535   3.952 -0.0774 -0.3844 -0.1747
    1DIPC   C4B12672  13.789  20.415   3.624 -0.1362 -0.1111  0.4182
    1DIPC   NC312673  22.783   8.216   7.354  0.3283 -0.1515  0.2243
    1DIPC   PO412674  22.384   8.069   7.154 -0.0358  0.2386 -0.1026
    1DIPC   GL112675  22.557   8.101   6.770  0.1400 -0.1440 -0.2314
    1DIPC   GL212676  22.830   8.082   6.791  0.2917 -0.1858  0.0665
    1DIPC   C1A12677  22.469   8.265   6.454 -0.1746  0.1028  0.2778
    1DIPC   D2A12678  22.373   8.344   6.158 -0.0550 -0.1749 -0.0533
    1DIPC   D3A12679  22.596   8.084   5.895 -0.1106 -0.1089 -0.1483
    1DIPC   C4A12680  22.966   7.926   5.712  0.1074  0.2541 -0.3799
    1DIPC   C1B12681  22.891   7.982   6.293  0.1643  0.0181  0.1599
    1DIPC   D2B12682  22.886   8.371   6.212  0.1463 -0.0173 -0.2626
    1DIPC   D3B12683  23.246   8.332   6.474  0.0691 -0.0354  0.2993
    1DIPC   C4B12684  23.409   8.570   6.617  0.0946 -0.0951 -0.1441
    1DIPC   NC312685   9.445  10.182   6.808 -0.2208 -0.2362 -0.1945
    1DIPC   PO412686   9.615   9.734   6.664  0.0788  0.2259  0.2274
    1DIPC   GL112687   9.637  10.071   6.360 -0.0797 -0.0599 -0.2228
    1DIPC   GL212688   9.952   9.985   6.169 -0.0898 -0.0319  0.2678
    1DIPC   C1A12689   9.532  10.053   5.921 -0.1369 -0.0019 -0.2308
    1DIPC   D2A12690   9.710   9.891   5.485  0.0128 -0.0266 -0.1595
    1DIPC   D3A12691   9.562  10.088   5.315 -0.2269 -0.5461  0.1766
    1DIPC   C4A12692   9.632  10.445   5.452  0.0026  0.0110  0.1271
    1DIPC   C1B12693  10.108   9.766   5.719 -0.4758 -0.0147 -0.2443
    1DIPC   D2B12694  10.201   9.697   5.240 -0.0292 -0.0400  0.0193
    1DIPC   D3B12695  10.178   9.333   5.411 -0.0326 -0.0814  0.0675
    1DIPC   C4B12696  10.300   9.053   5.114  0.1900  0.0974  0.1264
    1DIPC   NC312697   1.601  14.287   6.695 -0.1185 -0.1212 -0.1439
    1DIPC   PO412698   1.320  14.514   6.602 -0.0723 -0.3349 -0.0442
    1DIPC   GL112699   1.202  14.543   6.276 -0.1000  0.0329  0.3043
    1DIPC   GL212700   0.837  14.450   6.227 -0.3842  0.0182  0.1883
    1DIPC   C1A12701   1.259  14.164   5.971  0.1403 -0.3117  0.1910
    1DIPC   D2A12702   1.503  14.137   5.609  0.0898  0.0726  0.1478
    1DIPC   D3A12703   1.517  14.339   5.269  0.1382  0.3162 -0.0121
    1DIPC   C4A12704   1.445  14.163   4.875 -0.1374 -0.1024 -0.1280
    1DIPC   C1B12705   0.802  14.256   5.825 -0.2080  0.3636 -0.0300
    1DIPC   D2B12706   0.990  14.225   5.476 -0.1546 -0.2871  0.0217
    1DIPC   D3B12707   0.659  14.480   5.441 -0.2428 -0.1135  0.0593
    1DIPC   C4B12708   0.391  14.486   5.826  0.4854  0.3100  0.1745
    1DIPC   NC312709  13.027  27.178   6.577  0.0058  0.1757  0.0581
    1DIPC   PO412710  13.159  27.415   6.180 -0.0525 -0.2809  0.0417
    1DIPC   GL112711  13.207  27.599   5.752 -0.1576 -0.1049 -0.1681
    1DIPC   GL212712  13.512  27.581   5.723  0.0950  0.1140 -0.2066
    1DIPC   C1A12713  13.165  27.728   5.316 -0.1428  0.1071 -0.0528
    1DIPC   D2A12714  13.337  27.541   4.985  0.2510  0.1176 -0.1278
    1DIPC   D3A12715  13.167  27.449   4.581 -0.2305 -0.1415 -0.0248
    1DIPC   C4A12716  13.223  27.780   4.358  0.0611 -0.2362  0.0141
    1DIPC   C1B12717  13.670  27.766   5.340  0.1826 -0.1330  0.2303
    1DIPC   D2B12718  13.834  28.167   5.140 -0.0171  0.0784 -0.0743
    1DIPC   D3B12719  14.148  27.942   5.208 -0.1551 -0.2046  0.1094
    1DIPC   C4B12720  14.312  27.464   5.016  0.1399  0.2010  0.0431
    1DIPC   NC312721   3.998  10.648   6.201  0.1546 -0.1652 -0.0231
    1DIPC   PO412722   4.441  10.699   6.222 -0.4862  0.0459 -0.1833
    1DIPC   GL112723   4.174  10.281   5.906  0.0573 -0.0435  0.0939
    1DIPC   GL212724   3.981  10.031   6.115 -0.1856  0.0553 -0.0024
    1DIPC   C1A12725   4.236  10.040   5.485  0.1204  0.1680  0.1717
    1DIPC   D2A12726   4.447   9.813   5.135 -0.1135 -0.1291 -0.2388
    1DIPC   D3A12727   4.184   9.819   4.735 -0.1795  0.0880  0.3972
    1DIPC   C4A12728   4.214   9.454   4.413 -0.3244  0.0315 -0.3761
    1DIPC   C1B12729   4.139   9.669   5.830  0.0438  0.4591  0.0005
    1DIPC   D2B12730   4.186   9.505   5.482 -0.2208  0.0861 -0.0487
    1DIPC   D3B12731   3.768   9.229   5.477 -0.1813 -0.2602 -0.0338
    1DIPC   C4B12732   3.411   9.523   5.270  0.1445  0.3563 -0.1126
    1DIPC   NC312733   9.713  15.715   5.867  0.2295 -0.2241 -0.2294
    1DIPC   PO412734   9.753  15.253   5.853  0.1741  0.1848  0.0440
    1DIPC   GL112735   9.592  15.053   5.427  0.3413 -0.0135 -0.1788
    1DIPC   GL212736   9.426  14.893   5.104 -0.2140 -0.0319 -0.1026
    1DIPC   C1A12737   9.414  15.353   5.129  0.0023 -0.0022 -0.0618
    1DIPC   D2A12738   9.459  15.352   4.671 -0.0472  0.2610  0.1185
    1DIPC   D3A12739   9.650  15.006   4.665 -0.1117  0.0232 -0.3632
    1DIPC   C4A12740   9.486  14.642   4.694 -0.0513 -0.0234 -0.2172
    1DIPC   C1B12741   9.007  14.818   5.124 -0.2538  0.2843 -0.0752
    1DIPC   D2B12742   8.838  14.608   4.790 -0.2380  0.1464  0.0918
    1DIPC   D3B12743   9.143  14.317   4.679 -0.0228  0.1857  0.3600
    1DIPC   C4B12744   9.592  14.219   4.800  0.0579 -0.2190  0.3205
    1DIPC   NC312745   6.135  27.342   6.203 -0.1378  0.1753  0.1127
    1DIPC   PO412746   6.599  27.363   6.080  0.1020 -0.4067 -0.0782
    1DIPC   GL112747   6.785  27.395   5.598  0.2279 -0.1026  0.1992
    1DIPC   GL212748   6.609  27.703   5.348 -0.2976 -0.0231  0.1559
    1DIPC   C1A12749   7.097  27.520   5.318 -0.0508 -0.1295  0.1193
    1DIPC   D2A12750   7.228  27.524   4.835 -0.2037  0.1061  0.3049
    1DIPC   D3A12751   7.012  27.562   4.467  0.1608  0.1915  0.1367
    1DIPC   C4A12752   6.650  27.407   4.262  0.0741 -0.0585 -0.0287
    1DIPC   C1B12753   6.917  27.973   5.255 -0.0087  0.1416  0.2637
    1DIPC   D2B12754   7.159  28.034   4.887 -0.2749  0.0761 -0.0999
    1DIPC   D3B12755   6.798  28.144   4.534 -0.1430 -0.2336  0.2564
    1DIPC   C4B12756   6.520  28.416   4.371 -0.1542  0.0058  0.1043
    1DIPC   NC312757  24.760  24.019   6.469  0.3128 -0.1122  0.0554
    1DIPC   PO412758  25.194  24.237   6.311 -0.2717  0.0570 -0.1217
    1DIPC   GL112759  25.178  24.091   6.007 -0.0550 -0.3175  0.2559
    1DIPC   GL212760  25.437  24.108   5.898  0.2103 -0.0559 -0.1608
    1DIPC   C1A12761  25.014  24.152   5.620 -0.0438  0.0262  0.0619
    1DIPC   D2A12762  24.992  24.513   5.252  0.2002 -0.1223  0.3979
    1DIPC   D3A12763  24.811  24.208   4.968 -0.1084  0.0209 -0.0031
    1DIPC   C4A12764  24.519  24.012   4.817 -0.1852  0.2572 -0.1742
    1DIPC   C1B12765  25.480  23.981   5.416 -0.1277  0.2960 -0.0669
    1DIPC   D2B12766  25.273  24.060   5.066  0.0979 -0.2018  0.0627
    1DIPC   D3B12767  25.260  23.989   4.623  0.2155 -0.3288 -0.0427
    1DIPC   C4B12768  24.870  23.752   4.494  0.1302  0.2272 -0.2204
    1DIPC   NC312769  26.101  16.380   7.658 -0.0563 -0.1538  0.0310
    1DIPC   PO412770  25.850  16.499   7.199 -0.0962 -0.2185 -0.0920
    1DIPC   GL112771  25.682  16.586   6.796 -0.0758 -0.4088 -0.1526
    1DIPC   GL212772  25.649  16.907   6.682 -0.4516  0.1399  0.1567
    1DIPC   C1A12773  25.566  16.328   6.410  0.0327 -0.1388  0.1129
    1DIPC   D2A12774  25.218  16.504   6.095  0.1231 -0.2299 -0.2297
    1DIPC   D3A12775  25.398  16.636   5.810  0.0547 -0.1350  0.0282
    1DIPC   C4A12776  25.373  16.311   5.527  0.0063 -0.0735 -0.0867
    1DIPC   C1B12777  25.549  16.890   6.231 -0.2280 -0.2386  0.1956
    1DIPC   D2B12778  25.399  17.198   5.924  0.0117  0.0697  0.0734
    1DIPC   D3B12779  24.990  17.049   5.848  0.1134 -0.3317  0.2225
    1DIPC   C4B12780  25.062  16.858   5.431  0.3730 -0.1473 -0.1691
    1DIPC   NC312781  24.948  21.994   6.892  0.0555 -0.2862  0.1315
    1DIPC   PO412782  24.560  22.208   7.065  0.1697 -0.1386  0.1498
    1DIPC   GL112783  24.421  22.504   6.691 -0.0515  0.2023  0.0122
    1DIPC   GL212784  24.570  22.253   6.458  0.1964 -0.0034  0.2862
    1DIPC   C1A12785  24.279  22.742   6.278 -0.0188 -0.2755  0.1255
    1DIPC   D2A12786  24.063  22.555   6.018 -0.2227  0.1834 -0.3884
    1DIPC   D3A12787  23.721  22.710   6.203 -0.0407 -0.1943 -0.0029
    1DIPC   C4A12788  23.291  22.835   6.045 -0.2010 -0.0380  0.0167
    1DIPC   C1B12789  24.649  21.894   6.190 -0.1570  0.3218 -0.0403
    1DIPC   D2B12790  24.471  21.393   6.030  0.1876  0.1407  0.2838
    1DIPC   D3B12791  24.686  21.590   5.625 -0.0174  0.0255  0.0231
    1DIPC   C4B12792  24.619  21.440   5.225 -0.2153 -0.0700 -0.2198
    1DIPC   NC312793  14.172   2.743   8.088  0.1461  0.2291  0.2660
    1DIPC   PO412794  14.093   2.340   7.823 -0.0355  0.0251  0.0825
    1DIPC   GL112795  14.121   2.317   7.345  0.0008  0.0846  0.0390
    1DIPC   GL212796  14.081   2.542   7.168 -0.2162  0.0623 -0.2511
    1DIPC   C1A12797  14.453   2.208   7.062 -0.0318 -0.0586 -0.2502
    1DIPC   D2A12798  14.572   2.127   6.552 -0.1778 -0.0801 -0.0735
    1DIPC   D3A12799  14.961   2.172   6.578 -0.1053 -0.1447  0.1819
    1DIPC   C4A12800  14.985   2.216   6.954  0.0334  0.1003 -0.1152
    1DIPC   C1B12801  13.850   2.947   7.177 -0.1387  0.2322 -0.0308
    1DIPC   D2B12802  13.659   3.355   7.189 -0.0686 -0.1442  0.0921
    1DIPC   D3B12803  13.857   3.714   6.960  0.0728  0.1916  0.0215
    1DIPC   C4B12804  13.788   3.560   6.496  0.1730 -0.3579 -0.0680
    1DIPC   NC312805   2.341  14.755   7.018  0.0406 -0.2251  0.1847
    1DIPC   PO412806   1.934  14.699   6.775 -0.0798 -0.0867 -0.1322
    1DIPC   GL112807   1.683  14.762   6.366  0.2003 -0.1155  0.2972
    1DIPC   GL212808   1.751  15.020   6.161  0.2375  0.1983  0.1204
    1DIPC   C1A12809   1.606  14.561   5.979  0.0326  0.0014 -0.2938
    1DIPC   D2A12810   1.702  14.618   5.593  0.0695 -0.0247 -0.0349
    1DIPC   D3A12811   1.696  14.834   5.169 -0.1212  0.2645 -0.1924
    1DIPC   C4A12812   1.405  15.099   4.850  0.0623 -0.0452 -0.1109
    1DIPC   C1B12813   1.345  15.028   6.008 -0.0253  0.3562 -0.1562
    1DIPC   D2B12814   1.075  14.718   5.822  0.0067  0.0815 -0.1573
    1DIPC   D3B12815   1.077  14.856   5.386  0.0598  0.0927 -0.2324
    1DIPC   C4B12816   1.132  14.593   5.008  0.2844  0.0098 -0.0526
    1DIPC   NC312817  11.809  25.183   6.369  0.1136 -0.0530  0.0716
    1DIPC   PO412818  11.793  25.386   6.083 -0.2318 -0.2135 -0.2558
    1DIPC   GL112819  12.098  25.411   5.751  0.0020  0.0011 -0.0402
    1DIPC   GL212820  12.211  25.773   5.627  0.2215 -0.2105 -0.0232
    1DIPC   C1A12821  12.258  25.216   5.391  0.2547  0.1263 -0.0821
    1DIPC   D2A12822  12.217  25.215   5.013 -0.0194 -0.1975 -0.0845
    1DIPC   D3A12823  11.861  24.937   4.923 -0.1408  0.1177 -0.1084
    1DIPC   C4A12824  11.824  24.861   4.407  0.2939 -0.0132 -0.4081
    1DIPC   C1B12825  12.521  25.597   5.314 -0.0139 -0.0036 -0.2171
    1DIPC   D2B12826  12.980  25.416   5.310 -0.0776  0.2293  0.2098
    1DIPC   D3B12827  13.191  25.442   4.914 -0.0274  0.0066  0.3505
    1DIPC   C4B12828  13.429  25.799   4.819 -0.2598  0.3168 -0.0650
    1DIPC   NC312829  11.289  19.405   6.417 -0.2098  0.1007  0.0108
    1DIPC   PO412830  11.017  19.126   6.296 -0.1476  0.2038 -0.2408
    1DIPC   GL112831  10.917  19.242   5.870  0.0071  0.4379  0.1234
    1DIPC   GL212832  10.788  18.819   5.718 -0.2609  0.0051  0.4296
    1DIPC   C1A12833  10.941  19.274   5.476 -0.0008 -0.0083  0.2691
    1DIPC   D2A12834  10.825  19.081   5.216  0.1957 -0.0465  0.0052
    1DIPC   D3A12835  10.573  18.743   5.214  0.0995 -0.0617  0.1916
    1DIPC   C4A12836  10.226  18.587   5.481  0.0727 -0.0942 -0.0070
    1DIPC   C1B12837  10.781  18.423   5.506 -0.0383  0.2076  0.0972
    1DIPC   D2B12838  10.944  18.217   5.125 -0.1002 -0.1100  0.1239
    1DIPC   D3B12839  10.897  18.464   4.821 -0.1319 -0.0717  0.0810
    1DIPC   C4B12840  10.553  18.678   4.743  0.0170 -0.1941  0.2828
    1DIPC   NC312841  14.666   1.580   7.860  0.2123  0.0960 -0.3338
    1DIPC   PO412842  14.729   2.050   7.672 -0.0143  0.0348 -0.1424
    1DIPC   GL112843  14.799   2.438   7.585  0.0561 -0.0825 -0.0261
    1DIPC   GL212844  14.505   2.637   7.669  0.2061 -0.2056  0.0396
    1DIPC   C1A12845  14.886   2.696   7.236 -0.5673  0.1689  0.1447
    1DIPC   D2A12846  14.878   2.889   6.780 -0.0558 -0.0644  0.1056
    1DIPC   D3A12847  14.958   2.647   6.380 -0.2329 -0.0392  0.2196
    1DIPC   C4A12848  15.217   2.724   6.091 -0.0072  0.1325 -0.0437
    1DIPC   C1B12849  14.372   2.886   7.353 -0.2476 -0.4014 -0.1659
    1DIPC   D2B12850  14.246   3.304   7.232  0.1819 -0.2935  0.0611
    1DIPC   D3B12851  13.978   3.240   6.831 -0.1823 -0.0674  0.1181
    1DIPC   C4B12852  14.194   3.256   6.373  0.0276  0.0463 -0.0586
    1DIPC   NC312853   6.403  22.504   6.148  0.1266 -0.3433 -0.0370
    1DIPC   PO412854   6.465  22.118   5.866 -0.0250 -0.0236  0.1305
    1DIPC   GL112855   6.416  22.046   5.451  0.3717  0.0671  0.1495
    1DIPC   GL212856   6.691  21.825   5.422 -0.1813 -0.4294 -0.2734
    1DIPC   C1A12857   6.296  21.903   5.085  0.0760 -0.0364  0.0716
    1DIPC   D2A12858   6.295  21.797   4.619  0.2028  0.1761  0.1128
    1DIPC   D3A12859   6.112  21.395   4.485 -0.1701  0.0515 -0.2464
    1DIPC   C4A12860   5.805  21.343   4.157  0.1239  0.2134  0.1102
    1DIPC   C1B12861   6.767  21.979   4.920 -0.1544  0.1746  0.1291
    1DIPC   D2B12862   6.731  22.031   4.432  0.1769  0.0408 -0.1085
    1DIPC   D3B12863   6.911  21.685   4.515  0.1390  0.2801  0.1645
    1DIPC   C4B12864   6.620  21.362   4.586 -0.1297  0.0470 -0.0205
    1DIPC   NC312865  16.065  21.576   5.094  0.0865  0.1034 -0.0924
    1DIPC   PO412866  15.693  21.802   5.267  0.1978 -0.1943 -0.1992
    1DIPC   GL112867  15.504  21.633   4.922  0.0743 -0.2289  0.3405
    1DIPC   GL212868  15.454  21.952   4.849 -0.1223 -0.4120 -0.0002
    1DIPC   C1A12869  15.516  21.516   4.560  0.1060  0.0356 -0.0434
    1DIPC   D2A12870  15.841  21.327   4.239 -0.0525 -0.2628 -0.0981
    1DIPC   D3A12871  15.871  21.646   4.071  0.2069 -0.0397  0.0960
    1DIPC   C4A12872  15.612  21.906   3.980  0.2865 -0.2292 -0.0861
    1DIPC   C1B12873  15.246  21.908   4.423 -0.0514 -0.0461 -0.2889
    1DIPC   D2B12874  15.261  21.531   4.126  0.0375  0.0844  0.3382
    1DIPC   D3B12875  15.142  21.883   3.797 -0.0976  0.2084 -0.1794
    1DIPC   C4B12876  14.687  22.034   3.682 -0.0516  0.3679  0.0687
    1DIPC   NC312877  27.583  27.669   6.832  0.2461 -0.3216 -0.2185
    1DIPC   PO412878  27.333  27.522   6.427  0.0832 -0.3490  0.0141
    1DIPC   GL112879  27.237  27.548   5.989 -0.4742 -0.1012  0.2442
    1DIPC   GL212880  26.921  27.327   5.962 -0.0173 -0.0566  0.1861
    1DIPC   C1A12881  27.298  27.640   5.571  0.1102  0.1014 -0.2282
    1DIPC   D2A12882  27.220  27.602   5.164  0.1708 -0.1042  0.0599
    1DIPC   D3A12883  27.060  27.957   5.255 -0.2708  0.1405 -0.0279
    1DIPC   C4A12884  26.662  28.287   5.157  0.0653 -0.0959  0.0222
    1DIPC   C1B12885  26.843  27.400   5.609 -0.0703  0.0726  0.1840
    1DIPC   D2B12886  26.728  27.363   5.186 -0.1115  0.1281 -0.0611
    1DIPC   D3B12887  26.779  27.610   4.894  0.1665 -0.1510  0.1774
    1DIPC   C4B12888  26.552  27.941   4.897  0.0502  0.0916 -0.0181
    1DIPC   NC312889  27.671  16.204   6.756  0.0438  0.0007 -0.0124
    1DIPC   PO412890  27.269  16.047   6.775 -0.1612  0.0902 -0.0805
    1DIPC   GL112891  27.420  15.912   6.405 -0.2254 -0.3201 -0.1104
    1DIPC   GL212892  27.717  16.020   6.260 -0.1694 -0.4026 -0.1439
    1DIPC   C1A12893  27.414  15.821   5.956 -0.1450 -0.2131  0.1289
    1DIPC   D2A12894  27.419  15.714   5.523  0.0428  0.3600 -0.2277
    1DIPC   D3A12895  27.650  15.649   5.184 -0.0903  0.0546  0.0809
    1DIPC   C4A12896  27.529  15.324   4.988 -0.0275  0.1486  0.1331
    1DIPC   C1B12897  27.918  15.790   5.837 -0.1972 -0.2328 -0.0463
    1DIPC   D2B12898  28.069  15.700   5.441  0.1441  0.2914 -0.2694
    1DIPC   D3B12899  28.170  16.027   5.131 -0.0102 -0.0272 -0.4461
    1DIPC   C4B12900  27.906  16.393   4.924  0.1415  0.1332  0.0997
    1DIPC   NC312901  23.414   3.030   7.420  0.2598 -0.1099  0.4133
    1DIPC   PO412902  23.226   2.632   7.307  0.0833  0.0591  0.0475
    1DIPC   GL112903  23.005   2.349   7.070 -0.0391  0.6019  0.4231
    1DIPC   GL212904  23.189   2.496   6.781 -0.0287  0.0242  0.0904
    1DIPC   C1A12905  22.886   2.080   6.717  0.1341 -0.0407 -0.1469
    1DIPC   D2A12906  23.022   2.043   6.261 -0.1275 -0.2342 -0.0128
    1DIPC   D3A12907  22.853   1.632   6.154  0.2605  0.1917  0.2653
    1DIPC   C4A12908  22.425   1.564   6.047  0.0380  0.0393 -0.2507
    1DIPC   C1B12909  23.213   2.736   6.361  0.1488 -0.3654 -0.1468
    1DIPC   D2B12910  23.107   2.914   5.972  0.0293 -0.0614  0.0128
    1DIPC   D3B12911  23.533   2.961   5.865  0.1322 -0.0402  0.2175
    1DIPC   C4B12912  23.769   2.890   5.507  0.2345  0.3930  0.1588
    1DIPC   NC312913  11.469   0.565   7.130 -0.1219 -0.4125 -0.2026
    1DIPC   PO412914  11.200   0.931   6.947 -0.1011  0.1279 -0.2519
    1DIPC   GL112915  11.379   0.790   6.641 -0.1085  0.2824  0.1902
    1DIPC   GL212916  11.523   0.945   6.406 -0.2206 -0.2188 -0.0137
    1DIPC   C1A12917  11.340   0.524   6.259  0.0924 -0.1966  0.0481
    1DIPC   D2A12918  11.443   0.338   5.852  0.1944 -0.1190 -0.1128
    1DIPC   D3A12919  11.429   0.617   5.543  0.0990  0.0946  0.0239
    1DIPC   C4A12920  11.855   0.727   5.384  0.0264 -0.3905 -0.1873
    1DIPC   C1B12921  11.562   0.892   5.924  0.0070  0.1289 -0.2139
    1DIPC   D2B12922  11.573   1.131   5.577 -0.0488 -0.1708  0.0497
    1DIPC   D3B12923  11.865   1.484   5.799 -0.0475  0.0200 -0.1533
    1DIPC   C4B12924  12.311   1.725   5.691  0.1450  0.1124 -0.1652
    1DIPC   NC312925   2.331  12.903   6.536 -0.1062  0.0090 -0.0749
    1DIPC   PO412926   1.850  12.874   6.607  0.1235  0.1426 -0.0259
    1DIPC   GL112927   1.538  13.168   6.447  0.0600  0.0693 -0.0718
    1DIPC   GL212928   1.178  13.101   6.323 -0.2564  0.1623  0.3597
    1DIPC   C1A12929   1.535  13.277   6.071  0.1126  0.0702  0.1344
    1DIPC   D2A12930   1.668  13.000   5.672  0.0523 -0.3008  0.0555
    1DIPC   D3A12931   1.708  13.367   5.422  0.0009  0.5192 -0.1108
    1DIPC   C4A12932   1.689  13.629   5.141 -0.1067 -0.0710  0.1981
    1DIPC   C1B12933   1.124  12.997   5.925  0.1675 -0.0422 -0.1762
    1DIPC   D2B12934   1.027  13.174   5.535 -0.0912 -0.2390 -0.1793
    1DIPC   D3B12935   0.894  13.474   5.126  0.0826 -0.3643 -0.0350
    1DIPC   C4B12936   0.470  13.330   5.074  0.4543  0.2684  0.0045
    1DIPC   NC312937   5.767   7.891   6.334  0.0981  0.1382 -0.1555
    1DIPC   PO412938   5.679   7.555   6.473 -0.1627  0.2600  0.0393
    1DIPC   GL112939   5.879   7.490   6.067 -0.0413  0.2243 -0.0347
    1DIPC   GL212940   5.476   7.428   5.996 -0.3155  0.0155 -0.2806
    1DIPC   C1A12941   5.777   7.357   5.592  0.1867  0.2290 -0.2481
    1DIPC   D2A12942   5.504   7.140   5.279  0.0418 -0.0393 -0.2345
    1DIPC   D3A12943   5.377   7.356   4.913 -0.2264  0.1826  0.4020
    1DIPC   C4A12944   4.846   7.465   4.765 -0.2065  0.0452 -0.1284
    1DIPC   C1B12945   5.228   7.598   5.595 -0.2518 -0.1628 -0.0692
    1DIPC   D2B12946   5.256   7.661   5.249 -0.4169  0.1094 -0.0718
    1DIPC   D3B12947   5.310   7.843   4.786 -0.1052  0.1147 -0.0231
    1DIPC   C4B12948   5.220   7.756   4.370  0.2101 -0.2101 -0.2678
    1DIPC   NC312949  17.297   3.898   8.245  0.1828  0.1425  0.0401
    1DIPC   PO412950  17.289   4.319   8.298 -0.3952 -0.2079  0.1512
    1DIPC   GL112951  17.361   4.268   7.845  0.1307 -0.0419  0.0557
    1DIPC   GL212952  17.521   3.962   7.738 -0.2655  0.1162 -0.1490
    1DIPC   C1A12953  17.780   4.412   7.635 -0.0676  0.0812  0.0244
    1DIPC   D2A12954  18.105   4.627   7.428 -0.1579 -0.1168  0.0640
    1DIPC   D3A12955  18.276   4.337   7.174 -0.0948  0.0511 -0.0641
    1DIPC   C4A12956  18.322   4.372   6.732  0.0049  0.1366 -0.2339
    1DIPC   C1B12957  17.411   3.767   7.294  0.0923 -0.0252 -0.1578
    1DIPC   D2B12958  17.464   3.847   6.836 -0.0124  0.0977  0.0777
    1DIPC   D3B12959  17.749   3.765   6.444  0.2825  0.0263 -0.1840
    1DIPC   C4B12960  17.573   3.996   6.044 -0.0813  0.1947 -0.1002
    1DIPC   NC312961  12.073   9.998   6.657 -0.3457  0.1632  0.1435
    1DIPC   PO412962  12.504  10.071   6.956 -0.2992  0.3238 -0.1410
    1DIPC   GL112963  12.679   9.858   6.642 -0.1478 -0.2287  0.2790
    1DIPC   GL212964  12.418   9.837   6.287  0.0262 -0.0657 -0.1548
    1DIPC   C1A12965  12.916   9.786   6.230 -0.1776 -0.1721 -0.3094
    1DIPC   D2A12966  12.778   9.763   5.761 -0.1179 -0.4376 -0.1418
    1DIPC   D3A12967  13.015   9.474   5.573 -0.1042  0.2186 -0.0695
    1DIPC   C4A12968  13.029   9.018   5.802 -0.0557 -0.1845  0.0206
    1DIPC   C1B12969  12.286   9.769   5.898  0.3140 -0.5283  0.1439
    1DIPC   D2B12970  12.025  10.082   5.633  0.2238 -0.2655  0.0510
    1DIPC   D3B12971  12.404   9.761   5.381 -0.2027  0.1277 -0.1116
    1DIPC   C4B12972  12.507   9.859   4.959 -0.2991  0.0453 -0.1573
    1DIPC   NC312973   6.998   4.433   6.945 -0.3041 -0.1250  0.0590
    1DIPC   PO412974   7.373   4.603   7.041 -0.0850 -0.1723 -0.0532
    1DIPC   GL112975   7.746   4.364   6.869  0.0669  0.4273 -0.1423
    1DIPC   GL212976   7.992   4.579   6.747 -0.2558 -0.1007 -0.1458
    1DIPC   C1A12977   7.798   4.060   6.555  0.1184 -0.4161 -0.2244
    1DIPC   D2A12978   7.897   4.146   6.121 -0.0231 -0.4765  0.2255
    1DIPC   D3A12979   8.364   3.984   5.954 -0.2719 -0.1666  0.1223
    1DIPC   C4A12980   8.533   3.575   5.983 -0.1676  0.0715  0.3709
    1DIPC   C1B12981   8.328   4.278   6.858 -0.2392  0.1608  0.2458
    1DIPC   D2B12982   8.603   3.942   6.831  0.2763  0.1799  0.2544
    1DIPC   D3B12983   8.546   3.574   6.669  0.1046  0.1406  0.0560
    1DIPC   C4B12984   8.237   3.481   6.375  0.1852  0.2267  0.1019
    1DIPC   NC312985   8.416   6.568   6.818  0.2876 -0.0476 -0.0403
    1DIPC   PO412986   8.187   6.750   6.519 -0.3056  0.4425 -0.0566
    1DIPC   GL112987   8.262   6.646   6.119  0.0181  0.0058 -0.0703
    1DIPC   GL212988   8.180   6.941   5.840  0.0142  0.0553  0.2360
    1DIPC   C1A12989   8.633   6.611   5.829  0.2550  0.4060  0.0496
    1DIPC   D2A12990   8.768   6.617   5.475 -0.3652 -0.2254  0.1884
    1DIPC   D3A12991   8.713   6.427   5.076 -0.3687  0.1891  0.0941
    1DIPC   C4A12992   8.502   6.588   4.808  0.1135  0.1570  0.1539
    1DIPC   C1B12993   8.080   6.966   5.479  0.0032 -0.2067 -0.2000
    1DIPC   D2B12994   8.181   7.276   5.101  0.0644  0.1292 -0.1657
    1DIPC   D3B12995   8.493   6.967   5.174  0.3215  0.0076 -0.0407
    1DIPC   C4B12996   8.881   6.909   5.096  0.1579  0.1602 -0.0167
    1DIPC   NC312997   9.712   6.004   6.775  0.0765  0.0454 -0.0790
    1DIPC   PO412998   9.814   6.438   6.944 -0.0637  0.3044  0.1709
    1DIPC   GL112999   9.768   6.512   6.515  0.2331  0.3299 -0.0574
    1DIPC   GL213000   9.447   6.295   6.457 -0.0445 -0.2762  0.1994
    1DIPC   C1A13001   9.963   6.459   6.152  0.0029 -0.0979  0.0622
    1DIPC   D2A13002  10.354   6.398   5.956  0.3535 -0.1126 -0.1107
    1DIPC   D3A13003  10.529   6.313   6.314 -0.1858  0.0250  0.4896
    1DIPC   C4A13004  10.958   6.169   6.358  0.1908  0.0850 -0.1154
    1DIPC   C1B13005   9.490   6.287   5.952 -0.0294 -0.0292  0.0604
    1DIPC   D2B13006   9.594   6.115   5.572 -0.0994  0.3571  0.2117
    1DIPC   D3B13007   9.909   6.103   5.361  0.0608  0.0674 -0.3092
    1DIPC   C4B13008  10.378   6.259   5.368  0.0090 -0.1935 -0.1056
    1DIPC   NC313009   3.960  16.924   6.923  0.0565  0.3571  0.2790
    1DIPC   PO413010   4.019  16.694   6.472  0.0743 -0.2571  0.1250
    1DIPC   GL113011   4.077  16.877   6.116 -0.2150  0.0528  0.0553
    1DIPC   GL213012   4.168  16.628   5.915  0.4541 -0.1652  0.0273
    1DIPC   C1A13013   4.202  17.132   5.823 -0.0189 -0.3091 -0.1508
    1DIPC   D2A13014   4.035  17.147   5.382  0.2581  0.0509 -0.0362
    1DIPC   D3A13015   3.501  17.230   5.401 -0.1150 -0.3440  0.1444
    1DIPC   C4A13016   3.338  17.501   5.635  0.1611  0.0631 -0.0994
    1DIPC   C1B13017   3.971  16.685   5.457  0.0030  0.1923 -0.1130
    1DIPC   D2B13018   3.898  16.583   5.006 -0.3198  0.0676 -0.0361
    1DIPC   D3B13019   3.655  16.906   5.100 -0.0542  0.0029 -0.0661
    1DIPC   C4B13020   3.266  17.067   4.911 -0.1377  0.1145 -0.3156
    1DIPC   NC313021   3.493   9.289   6.813 -0.2923 -0.1006 -0.1439
    1DIPC   PO413022   3.699   9.568   6.452  0.0462  0.0266 -0.0018
    1DIPC   GL113023   3.666   9.660   6.053 -0.3938 -0.0001 -0.1576
    1DIPC   GL213024   3.483   9.511   5.891  0.0760 -0.2141  0.0415
    1DIPC   C1A13025   3.739   9.811   5.597 -0.4483 -0.1210  0.0606
    1DIPC   D2A13026   3.843   9.832   5.146 -0.3035  0.2801  0.0920
    1DIPC   D3A13027   4.067  10.238   5.023  0.0535  0.0416 -0.1143
    1DIPC   C4A13028   3.930  10.281   4.660 -0.0518 -0.0295  0.1216
    1DIPC   C1B13029   3.327   9.193   5.772 -0.2073  0.0407 -0.2558
    1DIPC   D2B13030   3.208   8.934   5.508  0.3136 -0.3824 -0.5215
    1DIPC   D3B13031   3.556   8.780   5.312  0.0330 -0.2056 -0.0009
    1DIPC   C4B13032   3.319   8.674   4.892  0.0206  0.3622 -0.0048
    1DIPC   NC313033   9.857  15.650   6.329  0.1490 -0.0432 -0.1960
    1DIPC   PO413034   9.876  16.090   6.148 -0.4643  0.1916 -0.2235
    1DIPC   GL113035   9.956  16.109   5.744  0.0540 -0.1703 -0.1587
    1DIPC   GL213036   9.776  16.042   5.445  0.1295 -0.2024 -0.0707
    1DIPC   C1A13037  10.233  16.111   5.451  0.2662  0.4552 -0.0296
    1DIPC   D2A13038  10.031  15.783   5.075 -0.0020 -0.2337 -0.1567
    1DIPC   D3A13039   9.811  15.799   4.687  0.0799 -0.0218 -0.3506
    1DIPC   C4A13040   9.860  16.132   4.384  0.1121  0.2110  0.0230
    1DIPC   C1B13041  10.034  16.274   5.035  0.3919 -0.0656  0.1972
    1DIPC   D2B13042  10.339  16.175   4.713  0.2674 -0.1878 -0.1805
    1DIPC   D3B13043  10.425  16.003   4.367  0.1875  0.0502 -0.0472
    1DIPC   C4B13044  10.152  15.723   4.165  0.0544 -0.2057  0.1575
    1DIPC   NC313045  13.048  18.877   5.899  0.1321  0.1951 -0.2411
    1DIPC   PO413046  12.675  19.085   5.933 -0.1120 -0.2963  0.4562
    1DIPC   GL113047  12.769  19.286   5.544  0.3651  0.5363  0.0927
    1DIPC   GL213048  12.502  19.209   5.393  0.2511  0.0000 -0.2249
    1DIPC   C1A13049  13.146  19.378   5.302  0.1926 -0.1777  0.1420
    1DIPC   D2A13050  13.492  19.179   5.189 -0.4083 -0.0579 -0.3570
    1DIPC   D3A13051  13.598  18.890   4.886  0.0982 -0.0589 -0.2358
    1DIPC   C4A13052  13.464  18.497   4.963  0.2302 -0.0216  0.4265
    1DIPC   C1B13053  12.634  18.994   5.093  0.2059 -0.1025 -0.2666
    1DIPC   D2B13054  12.866  19.304   4.809  0.0190  0.0565 -0.0334
    1DIPC   D3B13055  13.097  19.104   4.469  0.0994  0.0040  0.0519
    1DIPC   C4B13056  13.372  18.808   4.493 -0.2041  0.1232  0.2176
    1DIPC   NC313057  12.412   1.807   6.965 -0.2109  0.0313 -0.1618
    1DIPC   PO413058  12.566   1.518   7.139 -0.0077  0.1501 -0.1369
    1DIPC   GL113059  13.005   1.498   7.017  0.1445  0.2415  0.1402
    1DIPC   GL213060  12.945   1.708   6.863  0.0047 -0.4137 -0.3647
    1DIPC   C1A13061  13.280   1.400   6.720 -0.0703 -0.0914  0.0025
    1DIPC   D2A13062  13.451   1.448   6.428  0.1221 -0.0898 -0.1090
    1DIPC   D3A13063  13.399   1.660   6.160  0.0035 -0.0435  0.2136
    1DIPC   C4A13064  13.667   1.832   5.843  0.0017  0.1157  0.0330
    1DIPC   C1B13065  13.248   1.889   6.534  0.1339 -0.0960  0.0978
    1DIPC   D2B13066  13.564   2.235   6.478 -0.0319 -0.4951  0.1810
    1DIPC   D3B13067  13.278   2.558   6.445 -0.0947 -0.5549  0.0792
    1DIPC   C4B13068  13.263   3.051   6.224  0.0131  0.3459  0.2947
    1DIPC   NC313069  16.186  20.288   6.018  0.1778 -0.2062 -0.3469
    1DIPC   PO413070  16.042  20.551   5.650 -0.2616 -0.1193 -0.2335
    1DIPC   GL113071  16.186  20.546   5.325  0.0174  0.0982 -0.3554
    1DIPC   GL213072  16.509  20.750   5.318  0.0374  0.1666  0.1512
    1DIPC   C1A13073  16.491  20.359   5.036 -0.1801 -0.2549  0.0413
    1DIPC   D2A13074  16.897  20.158   5.134  0.0784 -0.3518 -0.1256
    1DIPC   D3A13075  16.884  20.044   4.733 -0.0644  0.0338  0.2329
    1DIPC   C4A13076  16.900  19.877   4.329  0.2376 -0.3084 -0.2007
    1DIPC   C1B13077  16.740  20.733   4.890  0.1740 -0.0058  0.0807
    1DIPC   D2B13078  16.934  20.519   4.662 -0.1089  0.1710 -0.0774
    1DIPC   D3B13079  17.213  20.522   4.250 -0.2623  0.0024  0.2476
    1DIPC   C4B13080  17.488  20.866   4.045 -0.0061 -0.1775 -0.0473
    1DIPC   NC313081  28.168  17.758   6.602 -0.4566 -0.0525  0.0876
    1DIPC   PO413082  28.023  17.375   6.677  0.0201 -0.0334  0.2798
    1DIPC   GL113083  28.139  17.127   6.333 -0.0307 -0.4294 -0.3166
    1DIPC   GL213084  28.083  17.464   6.138 -0.0768  0.2568 -0.1843
    1DIPC   C1A13085  28.337  16.854   6.024  0.2445  0.0382 -0.0519
    1DIPC   D2A13086  28.272  16.690   5.675  0.1132  0.0983  0.0258
    1DIPC   D3A13087  28.405  16.270   5.482 -0.1066 -0.2469  0.0817
    1DIPC   C4A13088  28.415  15.919   5.798 -0.1213  0.2475 -0.0939
    1DIPC   C1B13089  27.831  17.281   5.875 -0.4453 -0.4605  0.1831
    1DIPC   D2B13090  27.475  17.106   5.931 -0.1118 -0.0897 -0.1423
    1DIPC   D3B13091  27.253  16.679   5.972 -0.1999 -0.0213 -0.0588
    1DIPC   C4B13092  27.491  16.302   5.883  0.2119  0.1925 -0.1741
    1DIPC   NC313093  14.932  27.020   6.140 -0.2450  0.0667 -0.1226
    1DIPC   PO413094  14.774  27.220   6.510 -0.3660 -0.0807  0.0941
    1DIPC   GL113095  14.728  27.588   6.191 -0.0071 -0.0700  0.2683
    1DIPC   GL213096  14.750  27.922   6.329 -0.3202 -0.1485 -0.1660
    1DIPC   C1A13097  14.738  27.695   5.777  0.1402  0.3098 -0.0239
    1DIPC   D2A13098  14.556  28.048   5.455  0.0532  0.0645  0.4137
    1DIPC   D3A13099  14.733  27.851   5.066  0.0447  0.0153  0.1920
    1DIPC   C4A13100  14.938  28.054   4.735  0.1310  0.0422 -0.1514
    1DIPC   C1B13101  14.381  27.949   6.066  0.1965  0.2429 -0.1233
    1DIPC   D2B13102  14.056  27.996   5.791 -0.1805 -0.0131  0.0294
    1DIPC   D3B13103  14.017  28.315   6.009 -0.2167  0.2169 -0.2102
    1DIPC   C4B13104  13.940  28.759   5.818  0.1019 -0.0552  0.0259
    1DIPC   NC313105   3.955  21.146   6.644 -0.0958 -0.0836  0.0287
    1DIPC   PO413106   4.228  20.818   6.429 -0.0598  0.1159 -0.2252
    1DIPC   GL113107   4.075  20.699   5.941 -0.2398 -0.2600 -0.1914
    1DIPC   GL213108   3.918  20.838   5.721  0.2471 -0.2481  0.2125
    1DIPC   C1A13109   4.133  20.377   5.658 -0.0843 -0.1144  0.0004
    1DIPC   D2A13110   4.270  20.619   5.310  0.0634 -0.1387 -0.0615
    1DIPC   D3A13111   4.560  20.499   5.139  0.0968 -0.1776 -0.3617
    1DIPC   C4A13112   4.685  20.167   4.905 -0.2651  0.1684 -0.3577
    1DIPC   C1B13113   3.924  21.015   5.287  0.0832 -0.0047  0.3273
    1DIPC   D2B13114   4.069  21.159   4.850  0.2627  0.4209 -0.0530
    1DIPC   D3B13115   3.662  21.162   4.667 -0.0199  0.0124 -0.3004
    1DIPC   C4B13116   3.457  20.687   4.617 -0.0398  0.0196  0.2035
    1DIPC   NC313117   4.764  11.063   5.889  0.0956 -0.1000  0.0540
    1DIPC   PO413118   4.611  11.509   5.912  0.1884  0.1502  0.0281
    1DIPC   GL113119   4.719  11.447   5.493  0.4007  0.2961  0.2339
    1DIPC   GL213120   4.740  11.727   5.391  0.4165 -0.2224  0.1438
    1DIPC   C1A13121   4.537  11.290   5.110 -0.1119 -0.3489  0.0292
    1DIPC   D2A13122   4.092  11.281   5.126 -0.0692 -0.1031  0.0721
    1DIPC   D3A13123   3.870  11.783   4.913 -0.1898  0.0331  0.2024
    1DIPC   C4A13124   4.070  12.032   4.686 -0.1507  0.0262  0.0205
    1DIPC   C1B13125   4.865  11.765   4.958  0.2403  0.3005  0.3552
    1DIPC   D2B13126   4.979  11.680   4.537 -0.0430 -0.1398  0.1267
    1DIPC   D3B13127   5.250  11.387   4.589 -0.1927 -0.2335 -0.1705
    1DIPC   C4B13128   5.118  11.006   4.482 -0.1022 -0.2949 -0.3415
    1DIPC   NC313129  12.322   4.393   8.231  0.0773 -0.2425 -0.0273
    1DIPC   PO413130  12.625   4.527   7.882  0.2300  0.1134 -0.1691
    1DIPC   GL113131  12.998   4.249   7.737 -0.4670 -0.1384 -0.2676
    1DIPC   GL213132  12.861   4.130   7.505  0.1027  0.1296  0.0705
    1DIPC   C1A13133  13.354   4.415   7.382  0.1158 -0.0819 -0.0767
    1DIPC   D2A13134  13.395   4.675   7.004 -0.1088 -0.0935 -0.1541
    1DIPC   D3A13135  13.240   4.394   6.851  0.1092 -0.1226  0.5975
    1DIPC   C4A13136  13.109   4.087   7.102 -0.0232 -0.1014 -0.0513
    1DIPC   C1B13137  12.840   3.738   7.203  0.0106 -0.0734  0.2399
    1DIPC   D2B13138  12.415   3.674   7.128  0.1790 -0.2001  0.1044
    1DIPC   D3B13139  12.187   3.730   6.731 -0.2458  0.2567  0.1380
    1DIPC   C4B13140  12.169   4.115   6.509  0.0295  0.0153  0.2708
    1DIPC   NC313141  28.525  29.476   6.186  0.1328 -0.0131 -0.0488
    1DIPC   PO413142  28.841  29.230   6.359 -0.0202 -0.1106 -0.1049
    1DIPC   GL113143  28.810  29.281   5.839  0.0433 -0.0035 -0.0323
    1DIPC   GL213144  28.829  29.501   5.679 -0.1098  0.0236 -0.1447
    1DIPC   C1A13145  29.039  29.112   5.490  0.2036 -0.0299  0.3686
    1DIPC   D2A13146  28.890  29.215   5.034  0.0052  0.2014 -0.2239
    1DIPC   D3A13147  28.511  29.332   5.268 -0.1902 -0.1431  0.1870
    1DIPC   C4A13148  28.157  29.302   5.143 -0.0193  0.1614  0.0171
    1DIPC   C1B13149  28.991  29.628   5.311  0.2004  0.3480 -0.1846
    1DIPC   D2B13150  28.741   0.001   4.955  0.0841 -0.0304  0.1433
    1DIPC   D3B13151  28.604  29.571   4.766 -0.1381  0.1263 -0.0044
    1DIPC   C4B13152  28.172  29.522   4.711 -0.1031 -0.2296 -0.2672
    1DIPC   NC313153  10.034  13.868   6.239 -0.3383  0.0184  0.1072
    1DIPC   PO413154  10.072  14.163   5.834  0.1195 -0.1246 -0.5116
    1DIPC   GL113155  10.023  14.029   5.368  0.3121  0.1950 -0.0312
    1DIPC   GL213156  10.113  14.149   5.108 -0.1418  0.0431 -0.0177
    1DIPC   C1A13157  10.330  13.612   5.204  0.0657  0.1138  0.3149
    1DIPC   D2A13158  10.540  13.271   4.974  0.2282  0.1178  0.0503
    1DIPC   D3A13159  10.978  13.067   5.009 -0.0314  0.0215  0.0957
    1DIPC   C4A13160  11.044  12.697   5.306  0.1938  0.0473 -0.2397
    1DIPC   C1B13161   9.989  13.947   4.697  0.0860 -0.2400  0.2052
    1DIPC   D2B13162   9.538  13.741   4.381  0.1276  0.2345  0.1373
    1DIPC   D3B13163   9.534  13.253   4.490 -0.2221 -0.1409  0.1327
    1DIPC   C4B13164   9.892  12.892   4.353 -0.0662  0.2282 -0.5204
    1DIPC   NC313165   6.439   1.990   6.752  0.2522  0.0318 -0.4323
    1DIPC   PO413166   6.794   1.905   6.782 -0.0543 -0.0922  0.0886
    1DIPC   GL113167   7.029   2.079   6.456  0.1886 -0.0934 -0.2078
    1DIPC   GL213168   7.263   2.306   6.365 -0.0429  0.1309  0.0205
    1DIPC   C1A13169   6.992   2.023   6.026 -0.0958 -0.0264  0.2912
    1DIPC   D2A13170   6.799   1.889   5.551 -0.4043 -0.2115  0.1684
    1DIPC   D3A13171   6.702   1.790   5.108 -0.3416 -0.1619 -0.1603
    1DIPC   C4A13172   7.020   1.568   4.908 -0.5140  0.4716 -0.0417
    1DIPC   C1B13173   6.988   2.471   5.931  0.1633 -0.6006  0.1432
    1DIPC   D2B13174   6.992   2.396   5.465 -0.0944 -0.1306 -0.0430
    1DIPC   D3B13175   6.576   2.273   5.313  0.2719  0.1688  0.2859
    1DIPC   C4B13176   6.256   1.958   5.176 -0.1387  0.0285  0.1890
    1DIPC   NC313177  15.212  23.685   5.554 -0.1210 -0.0345 -0.1661
    1DIPC   PO413178  15.704  23.673   5.483  0.0457 -0.5288 -0.0001
    1DIPC   GL113179  15.793  23.553   5.060  0.1532 -0.1960 -0.2775
    1DIPC   GL213180  15.824  23.249   4.861 -0.0928 -0.2643  0.0618
    1DIPC   C1A13181  15.731  23.742   4.655 -0.0259 -0.0604  0.2242
    1DIPC   D2A13182  15.802  23.516   4.311 -0.0550  0.0694 -0.2173
    1DIPC   D3A13183  16.173  23.859   4.167 -0.0337 -0.1385 -0.0936
    1DIPC   C4A13184  15.992  24.222   3.822 -0.3713  0.1432 -0.0940
    1DIPC   C1B13185  16.118  23.385   4.661  0.1933 -0.1006  0.1462
    1DIPC   D2B13186  16.553  23.448   4.667  0.4841  0.2325 -0.2954
    1DIPC   D3B13187  16.368  23.563   5.076  0.1312  0.1991 -0.0568
    1DIPC   C4B13188  16.192  23.867   4.815  0.0903 -0.0806 -0.2307
    1DIPC   NC313189   5.667  21.978   6.366 -0.0720  0.1085  0.4043
    1DIPC   PO413190   5.801  21.802   6.019  0.3882  0.2586 -0.1029
    1DIPC   GL113191   5.820  21.774   5.568 -0.0454  0.1000  0.2819
    1DIPC   GL213192   5.952  21.510   5.424  0.0684 -0.0945  0.0983
    1DIPC   C1A13193   5.663  21.827   5.076  0.3526 -0.0273  0.0044
    1DIPC   D2A13194   5.691  21.831   4.615 -0.1835  0.3149 -0.1769
    1DIPC   D3A13195   5.849  22.075   4.352  0.2196 -0.0798  0.1307
    1DIPC   C4A13196   6.106  21.769   4.137 -0.3044 -0.1355 -0.2655
    1DIPC   C1B13197   5.558  21.423   5.333  0.3144  0.0997  0.2567
    1DIPC   D2B13198   5.226  21.504   5.137  0.0079  0.1269  0.2456
    1DIPC   D3B13199   4.983  21.350   4.824 -0.3693 -0.0004 -0.2525
    1DIPC   C4B13200   4.942  21.062   4.463 -0.0224  0.5584 -0.1125
    1DIPC   NC313201   0.036  22.413   6.041 -0.1051  0.0866 -0.1961
    1DIPC   PO413202   0.164  22.052   6.330  0.1086  0.0765 -0.2850
    1DIPC   GL113203   0.508  22.007   6.007  0.1738 -0.1473 -0.0067
    1DIPC   GL213204   0.307  21.724   5.789 -0.3065 -0.1184  0.0944
    1DIPC   C1A13205   0.878  21.794   5.815 -0.0716 -0.2820  0.0119
    1DIPC   D2A13206   1.199  21.914   5.449  0.2823  0.1520 -0.2374
    1DIPC   D3A13207   1.373  21.899   5.039  0.1660 -0.0385  0.0233
    1DIPC   C4A13208   0.960  21.909   4.819 -0.0200  0.0649 -0.2226
    1DIPC   C1B13209   0.231  21.995   5.514 -0.3658  0.3109  0.0131
    1DIPC   D2B13210   0.030  21.937   5.142  0.0213 -0.0717 -0.1239
    1DIPC   D3B13211   0.130  21.879   4.643 -0.0380  0.4679 -0.3534
    1DIPC   C4B13212  29.626  21.888   4.335 -0.2777  0.0624 -0.1450
    1DIPC   NC313213   4.864  26.351   5.382 -0.2025 -0.1520 -0.4128
    1DIPC   PO413214   5.183  26.433   5.693  0.0367  0.1134  0.0635
    1DIPC   GL113215   5.339  26.180   5.276 -0.1182  0.2691 -0.0232
    1DIPC   GL213216   5.334  26.405   5.045 -0.1602 -0.1287  0.1048
    1DIPC   C1A13217   5.682  26.033   5.136  0.2396  0.1225  0.0675
    1DIPC   D2A13218   6.068  25.939   4.991  0.0454  0.1030  0.1291
    1DIPC   D3A13219   6.163  25.701   4.595 -0.0446 -0.1435 -0.0426
    1DIPC   C4A13220   6.164  25.960   4.323  0.1202  0.2397 -0.3333
    1DIPC   C1B13221   5.328  26.818   4.773 -0.0204 -0.1652  0.1215
    1DIPC   D2B13222   5.229  27.069   4.353 -0.2397  0.1264 -0.0649
    1DIPC   D3B13223   5.615  26.753   4.256  0.1287  0.6063 -0.1832
    1DIPC   C4B13224   5.982  26.786   4.059  0.5454 -0.1903 -0.0353
    1DIPC   NC313225   1.777  12.336   6.588  0.4416  0.2226  0.0296
    1DIPC   PO413226   1.435  12.040   6.592  0.0810  0.0581 -0.2920
    1DIPC   GL113227   1.346  11.927   6.205 -0.0714 -0.2233  0.1703
    1DIPC   GL213228   1.591  12.114   6.140  0.0827 -0.4676  0.3087
    1DIPC   C1A13229   1.351  11.787   5.833 -0.0071  0.0348 -0.0289
    1DIPC   D2A13230   1.491  11.815   5.361 -0.0103  0.4489  0.0427
    1DIPC   D3A13231   1.457  12.037   5.021 -0.0709 -0.5676 -0.1172
    1DIPC   C4A13232   1.521  12.393   5.205  0.4207 -0.1228 -0.0233
    1DIPC   C1B13233   1.474  12.377   5.789  0.0967  0.3277 -0.2950
    1DIPC   D2B13234   1.285  12.754   5.517  0.0062  0.2746 -0.0992
    1DIPC   D3B13235   1.412  12.873   5.065  0.1623  0.1394 -0.2841
    1DIPC   C4B13236   1.424  13.310   4.895  0.1475 -0.1391 -0.0652
    1DIPC   NC313237  10.932  13.759   6.647  0.0363  0.0348  0.2133
    1DIPC   PO413238  10.956  13.820   6.123 -0.0476  0.2438 -0.2757
    1DIPC   GL113239  10.870  13.907   5.621  0.0155  0.5577  0.1182
    1DIPC   GL213240  10.596  14.130   5.522 -0.1049  0.0353 -0.2621
    1DIPC   C1A13241  11.141  14.107   5.284  0.0079 -0.2324 -0.2644
    1DIPC   D2A13242  11.124  14.060   4.785  0.1464  0.0468 -0.0484
    1DIPC   D3A13243  10.737  13.936   4.655  0.0967 -0.2090 -0.0789
    1DIPC   C4A13244  10.418  13.689   4.663  0.0462  0.1711  0.2203
    1DIPC   C1B13245  10.617  14.203   5.085 -0.0838 -0.2822 -0.0460
    1DIPC   D2B13246  10.371  14.430   4.828  0.1801  0.1462  0.0772
    1DIPC   D3B13247  10.399  14.245   4.501  0.0695 -0.0698  0.3020
    1DIPC   C4B13248  10.383  14.627   4.192 -0.2454 -0.1595 -0.1093
    1DIPC   NC313249  23.604  18.089   6.496 -0.4091 -0.1459  0.2365
    1DIPC   PO413250  23.456  18.397   6.182  0.3343  0.1491  0.0343
    1DIPC   GL113251  23.552  18.258   5.750  0.3526 -0.0096 -0.0558
    1DIPC   GL213252  23.842  18.451   5.615 -0.0233 -0.1855  0.0728
    1DIPC   C1A13253  23.780  17.950   5.362  0.1194  0.0786  0.0021
    1DIPC   D2A13254  23.936  17.951   4.968  0.1546 -0.0599  0.3293
    1DIPC   D3A13255  23.672  18.208   4.913  0.2582  0.1078 -0.1773
    1DIPC   C4A13256  23.706  18.408   4.561  0.0952  0.1965  0.2485
    1DIPC   C1B13257  23.997  18.484   5.205  0.0133  0.0346  0.1372
    1DIPC   D2B13258  24.156  18.365   4.794  0.2111 -0.2808  0.0059
    1DIPC   D3B13259  24.521  18.191   4.676 -0.0210 -0.0375  0.0499
    1DIPC   C4B13260  24.684  18.464   4.445 -0.2324  0.4046  0.0988
    1DIPC   NC313261  24.265  19.917   6.258  0.0163 -0.0052 -0.2060
    1DIPC   PO413262  24.777  19.830   6.502 -0.4023  0.1576 -0.1506
    1DIPC   GL113263  24.764  19.956   6.042 -0.0875 -0.0241 -0.1992
    1DIPC   GL213264  24.619  20.205   6.018  0.2992 -0.1749 -0.0650
    1DIPC   C1A13265  24.746  19.900   5.613  0.0893  0.0020 -0.3262
    1DIPC   D2A13266  24.791  20.199   5.225 -0.2404 -0.0620  0.0017
    1DIPC   D3A13267  24.680  20.409   4.805  0.2485 -0.1503  0.2455
    1DIPC   C4A13268  24.285  20.183   4.714  0.0811  0.1474 -0.2003
    1DIPC   C1B13269  24.410  20.303   5.645 -0.0342  0.0744  0.1559
    1DIPC   D2B13270  24.273  20.277   5.196  0.0540  0.1277  0.0829
    1DIPC   D3B13271  24.207  19.814   5.129  0.0488  0.1781  0.0327
    1DIPC   C4B13272  23.863  19.647   4.979  0.1706 -0.0506  0.0716
    1DIPC   NC313273  28.787   2.466   6.284 -0.0103 -0.0219  0.1598
    1DIPC   PO413274  29.190   2.260   6.168 -0.0338  0.1464  0.1783
    1DIPC   GL113275  29.240   2.288   5.689 -0.1425 -0.0721 -0.1799
    1DIPC   GL213276  29.188   2.577   5.720  0.0393  0.0927  0.0909
    1DIPC   C1A13277  29.419   2.347   5.335 -0.1239  0.0764 -0.1184
    1DIPC   D2A13278  29.728   2.131   5.082  0.0960 -0.2007 -0.1796
    1DIPC   D3A13279  29.597   2.013   4.746  0.1251  0.0550  0.3588
    1DIPC   C4A13280  29.551   1.652   4.522  0.0084  0.1435 -0.0892
    1DIPC   C1B13281  29.639   2.666   5.663 -0.1354  0.1795 -0.2398
    1DIPC   D2B13282  29.844   3.039   5.551 -0.0434  0.0632 -0.4243
    1DIPC   D3B13283   0.285   2.919   5.205 -0.1180 -0.2569 -0.2324
    1DIPC   C4B13284   0.459   3.314   4.884  0.1843 -0.3310  0.1012
    1DIPC   NC313285   7.105  16.291   5.975  0.1086 -0.1306  0.1229
    1DIPC   PO413286   7.009  15.869   5.875 -0.3075 -0.0156  0.0114
    1DIPC   GL113287   7.006  16.030   5.427 -0.0246 -0.1211 -0.0539
    1DIPC   GL213288   6.903  16.301   5.464  0.2257 -0.0389  0.3323
    1DIPC   C1A13289   7.168  16.074   5.149  0.1245 -0.1600  0.2155
    1DIPC   D2A13290   6.947  16.072   4.707  0.2517 -0.2675 -0.1910
    1DIPC   D3A13291   6.948  15.903   4.263  0.1104 -0.0784  0.1802
    1DIPC   C4A13292   7.274  16.052   4.071 -0.1809  0.0051  0.0798
    1DIPC   C1B13293   6.791  16.386   5.038 -0.0642 -0.3720  0.2040
    1DIPC   D2B13294   6.733  16.596   4.669  0.0040 -0.0516  0.0237
    1DIPC   D3B13295   6.940  16.901   4.624 -0.2084 -0.5306  0.0330
    1DIPC   C4B13296   7.159  17.102   4.913  0.0575 -0.0028 -0.1577
    1DIPC   NC313297  27.988  19.756   6.269  0.1256 -0.0214 -0.1656
    1DIPC   PO413298  28.308  20.156   6.236  0.2073 -0.2440 -0.0526
    1DIPC   GL113299  28.339  20.265   5.779 -0.1624 -0.1096 -0.1052
    1DIPC   GL213300  28.671  20.360   5.740  0.2568  0.2440 -0.2446
    1DIPC   C1A13301  28.196  20.337   5.320 -0.1455 -0.0813  0.2688
    1DIPC   D2A13302  28.446  20.308   4.881  0.2987  0.1847 -0.3172
    1DIPC   D3A13303  28.255  20.574   4.631 -0.1453  0.2088  0.1772
    1DIPC   C4A13304  27.925  20.601   4.766 -0.1036  0.0484  0.0879
    1DIPC   C1B13305  28.430  20.702   5.488 -0.0048  0.1799  0.0203
    1DIPC   D2B13306  28.333  20.802   5.088 -0.1511 -0.5387 -0.1688
    1DIPC   D3B13307  27.947  20.817   5.311 -0.1786  0.0271  0.1548
    1DIPC   C4B13308  27.918  20.975   5.723  0.0093 -0.1543 -0.2024
    1DIPC   NC313309  19.504  29.564   7.423 -0.1625 -0.2285 -0.1552
    1DIPC   PO413310  19.850  29.771   7.498  0.1243  0.0418 -0.0744
    1DIPC   GL113311  19.709   0.246   7.277 -0.0705 -0.3212  0.0620
    1DIPC   GL213312  19.726   0.162   6.984 -0.0878 -0.0721 -0.2454
    1DIPC   C1A13313  19.542   0.645   7.081 -0.0336  0.0975 -0.1127
    1DIPC   D2A13314  19.789   0.927   6.951  0.1333  0.4363  0.0812
    1DIPC   D3A13315  19.979   0.521   6.707 -0.1062 -0.1608  0.1275
    1DIPC   C4A13316  20.336   0.425   7.001 -0.3521 -0.0889 -0.3417
    1DIPC   C1B13317  19.469   0.314   6.719 -0.2043  0.0895 -0.0561
    1DIPC   D2B13318  19.503   0.636   6.459  0.2243 -0.2353  0.2020
    1DIPC   D3B13319  19.175   0.844   6.562 -0.1614 -0.0274  0.3713
    1DIPC   C4B13320  18.787   1.039   6.354  0.0928  0.0566  0.1871
    1DIPC   NC313321  16.499  27.716   6.523 -0.0502  0.2832 -0.1268
    1DIPC   PO413322  16.654  27.318   6.538  0.0482 -0.4773  0.0917
    1DIPC   GL113323  16.603  27.581   6.086  0.1839 -0.1173 -0.1825
    1DIPC   GL213324  16.888  27.621   5.938  0.0970  0.1529  0.0039
    1DIPC   C1A13325  16.355  27.762   5.695 -0.1463 -0.0577 -0.2101
    1DIPC   D2A13326  16.342  28.192   5.558  0.2095 -0.1889  0.1408
    1DIPC   D3A13327  16.496  28.630   5.310 -0.2469  0.0669  0.0172
    1DIPC   C4A13328  16.687  29.037   5.180  0.1461 -0.2914  0.0400
    1DIPC   C1B13329  16.877  27.745   5.504 -0.0791 -0.0408  0.1172
    1DIPC   D2B13330  16.529  27.789   5.215 -0.0652  0.2297 -0.0825
    1DIPC   D3B13331  16.206  27.777   4.923 -0.2472  0.1353 -0.1488
    1DIPC   C4B13332  16.052  27.545   4.553 -0.2887 -0.0805  0.1920
    1DIPC   NC313333   2.518  18.442   6.487  0.0223 -0.0325 -0.0529
    1DIPC   PO413334   2.661  18.752   6.705  0.1912 -0.0331  0.0040
    1DIPC   GL113335   2.774  18.804   6.338  0.0516 -0.2185 -0.0292
    1DIPC   GL213336   2.675  18.748   6.080  0.0422 -0.1577 -0.0691
    1DIPC   C1A13337   3.272  18.760   6.184  0.0742  0.1251 -0.0610
    1DIPC   D2A13338   3.735  18.889   6.046 -0.0133  0.2170 -0.1439
    1DIPC   D3A13339   3.628  18.753   5.646 -0.1062  0.2723 -0.1010
    1DIPC   C4A13340   3.806  18.324   5.648 -0.0575  0.0891  0.0450
    1DIPC   C1B13341   2.810  18.570   5.840  0.0410  0.1148  0.1697
    1DIPC   D2B13342   3.201  18.472   5.644 -0.0786 -0.0789  0.1125
    1DIPC   D3B13343   3.381  18.457   5.250  0.1812 -0.1076  0.3777
    1DIPC   C4B13344   3.254  18.211   4.837  0.0475  0.1594  0.0042
    1DIPC   NC313345   7.712   3.099   7.407  0.1257  0.2249  0.0077
    1DIPC   PO413346   7.484   3.061   6.974 -0.0505  0.3782  0.0871
    1DIPC   GL113347   7.365   3.114   6.469 -0.2464  0.0576  0.2444
    1DIPC   GL213348   7.020   2.882   6.422  0.0973  0.2133 -0.0474
    1DIPC   C1A13349   7.561   3.176   6.005 -0.1678 -0.2392 -0.1240
    1DIPC   D2A13350   7.883   3.067   5.744  0.1587 -0.1430 -0.0506
    1DIPC   D3A13351   7.573   3.115   5.367 -0.3430 -0.2584  0.2107
    1DIPC   C4A13352   7.184   3.105   5.210  0.0312 -0.3366  0.4886
    1DIPC   C1B13353   7.004   3.066   5.971  0.2136  0.1905  0.0428
    1DIPC   D2B13354   6.777   3.390   5.816 -0.2549 -0.0701  0.1265
    1DIPC   D3B13355   6.742   3.457   5.432 -0.1645 -0.0627  0.4518
    1DIPC   C4B13356   6.588   3.835   5.205  0.1171 -0.1757 -0.2316
    1DIPC   NC313357   5.790   0.494   5.501  0.5364  0.4406 -0.0993
    1DIPC   PO413358   5.359   0.679   5.638 -0.0456  0.1325 -0.0047
    1DIPC   GL113359   5.296   0.876   5.275 -0.1432  0.0290 -0.1149
    1DIPC   GL213360   5.404   0.592   5.068  0.0187 -0.1332  0.0311
    1DIPC   C1A13361   5.351   1.097   4.880  0.2395 -0.2266 -0.1317
    1DIPC   D2A13362   5.238   1.398   4.558 -0.2016  0.1405 -0.0945
    1DIPC   D3A13363   5.607   1.541   4.274 -0.1706 -0.0395  0.0546
    1DIPC   C4A13364   5.693   1.944   4.437  0.0697  0.1721 -0.0671
    1DIPC   C1B13365   5.733   0.724   4.771 -0.4159 -0.1469 -0.2022
    1DIPC   D2B13366   6.101   0.843   4.394  0.4390  0.1925  0.0410
    1DIPC   D3B13367   6.335   0.684   4.578 -0.0187 -0.1012  0.1239
    1DIPC   C4B13368   6.719   0.878   4.657 -0.0104 -0.1137  0.2218
    1DIPC   NC313369  18.646  21.168   5.951  0.2686  0.0116  0.0632
    1DIPC   PO413370  19.082  21.119   5.848 -0.2380 -0.3226 -0.0247
    1DIPC   GL113371  19.306  21.244   5.547  0.1342  0.0380 -0.4133
    1DIPC   GL213372  19.237  21.509   5.468  0.1384  0.3894 -0.0623
    1DIPC   C1A13373  19.603  21.238   5.262  0.2232  0.3530  0.1364
    1DIPC   D2A13374  20.064  20.949   5.275 -0.1714 -0.0991  0.2034
    1DIPC   D3A13375  20.210  20.849   4.869  0.0635 -0.0221 -0.1017
    1DIPC   C4A13376  20.351  20.998   4.420 -0.0738  0.0470 -0.0943
    1DIPC   C1B13377  19.379  21.808   5.241 -0.1032  0.1775  0.1996
    1DIPC   D2B13378  19.371  22.260   5.225 -0.1918 -0.0308  0.2907
    1DIPC   D3B13379  19.306  22.382   4.950 -0.0873 -0.1908  0.0908
    1DIPC   C4B13380  19.379  22.283   4.481  0.0382 -0.1584 -0.3645
    1DIPC   NC313381   1.761  18.823   6.230 -0.0617  0.1964 -0.1384
    1DIPC   PO413382   1.586  18.508   6.225 -0.0996  0.2883  0.0239
    1DIPC   GL113383   1.463  18.141   5.810  0.0691  0.2291  0.0569
    1DIPC   GL213384   1.589  17.969   5.799 -0.0236  0.0513 -0.4092
    1DIPC   C1A13385   1.304  17.792   5.428 -0.0776  0.1115 -0.0877
    1DIPC   D2A13386   1.205  17.690   5.043 -0.2575  0.0819  0.1272
    1DIPC   D3A13387   1.194  17.338   4.985 -0.0355  0.0016 -0.3493
    1DIPC   C4A13388   1.544  17.127   4.824  0.1992 -0.3442 -0.3398
    1DIPC   C1B13389   1.636  18.252   5.394  0.0024  0.1353 -0.1543
    1DIPC   D2B13390   1.466  18.129   4.852 -0.0389 -0.2552 -0.1310
    1DIPC   D3B13391   1.079  18.342   4.531 -0.2181  0.2531  0.0983
    1DIPC   C4B13392   1.027  18.180   4.158  0.2534 -0.1034 -0.2007
    1DIPC   NC313393   0.921  28.074   6.270  0.1656  0.0410  0.0140
    1DIPC   PO413394   1.139  28.429   6.147  0.0363  0.4658 -0.0639
    1DIPC   GL113395   1.200  28.448   5.692  0.2553  0.2276 -0.2566
    1DIPC   GL213396   1.519  28.317   5.658 -0.0989 -0.1564 -0.1575
    1DIPC   C1A13397   1.332  28.521   5.276 -0.0510  0.0088  0.2740
    1DIPC   D2A13398   1.502  28.394   4.894  0.0014  0.1421  0.0485
    1DIPC   D3A13399   1.376  28.718   4.588 -0.1142  0.4495 -0.1713
    1DIPC   C4A13400   1.159  28.655   4.277  0.1740 -0.0887  0.0466
    1DIPC   C1B13401   1.447  28.011   5.394 -0.1540 -0.0850  0.0672
    1DIPC   D2B13402   1.579  27.890   5.010 -0.1063  0.0046  0.0844
    1DIPC   D3B13403   1.960  27.686   4.969  0.1987 -0.0947 -0.1690
    1DIPC   C4B13404   2.067  27.485   4.674 -0.1918 -0.4447 -0.1825
    1DIPC   NC313405   8.659   0.699   6.790 -0.1558  0.0915  0.0230
    1DIPC   PO413406   9.088   0.522   6.825 -0.1851 -0.1478  0.0303
    1DIPC   GL113407   9.051   0.766   6.385 -0.1854  0.1925 -0.2189
    1DIPC   GL213408   8.762   0.784   6.280 -0.2976  0.1358 -0.0379
    1DIPC   C1A13409   9.130   0.839   5.892 -0.1215  0.1697 -0.1443
    1DIPC   D2A13410   9.411   0.841   5.512 -0.0633  0.1020 -0.0748
    1DIPC   D3A13411   9.875   0.939   5.730  0.0876 -0.0222 -0.1730
    1DIPC   C4A13412   9.934   1.296   5.788 -0.0268 -0.0774 -0.1069
    1DIPC   C1B13413   8.465   0.461   6.203  0.0797 -0.1076 -0.0098
    1DIPC   D2B13414   8.185   0.196   5.913  0.1518  0.2222 -0.0023
    1DIPC   D3B13415   8.424   0.379   5.555  0.1621  0.0138  0.1788
    1DIPC   C4B13416   8.201   0.752   5.319  0.1296 -0.2948  0.0076
    1DIPC   NC313417  10.144   0.625   7.672  0.1583  0.2155  0.1184
    1DIPC   PO413418   9.943   0.852   7.433 -0.2733 -0.1646 -0.0572
    1DIPC   GL113419  10.092   0.968   7.041 -0.1300 -0.2691 -0.0136
    1DIPC   GL213420   9.981   1.292   6.907 -0.1924 -0.1769 -0.0161
    1DIPC   C1A13421  10.363   0.875   6.631  0.1204  0.1537  0.0530
    1DIPC   D2A13422  10.520   1.177   6.425  0.0299 -0.3011  0.2799
    1DIPC   D3A13423  10.225   0.936   6.096 -0.0327  0.1027  0.1175
    1DIPC   C4A13424  10.418   0.902   5.636  0.0253 -0.4506  0.1612
    1DIPC   C1B13425  10.200   1.627   6.662 -0.1234  0.0602  0.0117
    1DIPC   D2B13426  10.639   1.831   6.436  0.1048 -0.2135 -0.0696
    1DIPC   D3B13427  10.389   1.778   6.052 -0.2151  0.1993 -0.2240
    1DIPC   C4B13428  10.198   1.786   5.720  0.0133 -0.0335 -0.2722
    1DIPC   NC313429  10.069   6.772   7.264  0.1551  0.0110  0.3799
    1DIPC   PO413430  10.013   7.246   7.120  0.2085 -0.0719  0.0869
    1DIPC   GL113431  10.115   7.143   6.565  0.2433  0.0258 -0.0212
    1DIPC   GL213432   9.830   7.130   6.396 -0.0942 -0.0066 -0.1585
    1DIPC   C1A13433  10.344   7.335   6.173  0.1464  0.1520 -0.0985
    1DIPC   D2A13434  10.553   7.166   5.764 -0.2026  0.2559 -0.1622
    1DIPC   D3A13435  10.533   6.787   5.612  0.0173  0.0485  0.2197
    1DIPC   C4A13436  10.854   6.527   5.466 -0.2512 -0.1182 -0.3771
    1DIPC   C1B13437   9.857   7.468   6.231 -0.3738  0.2167 -0.2032
    1DIPC   D2B13438  10.080   7.810   5.892  0.3213  0.0723 -0.2973
    1DIPC   D3B13439  10.031   7.411   5.741 -0.1852  0.2646 -0.0452
    1DIPC   C4B13440  10.094   7.057   5.443  0.3139  0.3659 -0.1821
    1DIPC   NC313441   4.147   0.586   5.887 -0.0542  0.2220 -0.0375
    1DIPC   PO413442   4.502   0.393   5.841 -0.0623  0.0463 -0.0497
    1DIPC   GL113443   4.665   0.259   5.430  0.0908  0.1431  0.1695
    1DIPC   GL213444   4.996   0.387   5.429  0.0841  0.0020 -0.1996
    1DIPC   C1A13445   4.730   0.165   5.048 -0.3885 -0.2768  0.0713
    1DIPC   D2A13446   4.470  29.774   4.666  0.0115 -0.0153 -0.2442
    1DIPC   D3A13447   4.681   0.221   4.438 -0.0112 -0.1816 -0.2393
    1DIPC   C4A13448   4.983   0.419   4.668  0.1282  0.1692  0.2002
    1DIPC   C1B13449   4.844   0.659   5.075  0.0720 -0.0993  0.0943
    1DIPC   D2B13450   4.911   0.882   4.614 -0.1575 -0.1682 -0.0586
    1DIPC   D3B13451   4.522   1.126   4.787 -0.1630  0.2577 -0.2211
    1DIPC   C4B13452   4.440   1.253   5.245  0.2591  0.1461  0.1037
    1DIPC   NC313453   7.449   3.975   7.441  0.1503  0.3192 -0.0501
    1DIPC   PO413454   7.587   3.582   7.193  0.1489  0.3219  0.1525
    1DIPC   GL113455   7.555   3.666   6.739 -0.0961 -0.0576 -0.2531
    1DIPC   GL213456   7.718   3.451   6.586 -0.1142  0.3163  0.0416
    1DIPC   C1A13457   7.343   3.849   6.414  0.0154 -0.0115 -0.1189
    1DIPC   D2A13458   7.258   4.127   6.061 -0.2687 -0.3060  0.2189
    1DIPC   D3A13459   7.550   3.948   5.781  0.1536  0.1218 -0.2350
    1DIPC   C4A13460   7.507   3.915   5.377  0.1340  0.0147  0.1354
    1DIPC   C1B13461   7.790   3.650   6.227 -0.0370  0.0344 -0.0736
    1DIPC   D2B13462   8.017   3.564   5.905 -0.0048 -0.0643 -0.0727
    1DIPC   D3B13463   7.975   3.795   5.532 -0.0474 -0.1334  0.2027
    1DIPC   C4B13464   8.300   4.058   5.477 -0.1625 -0.1550 -0.0220
    1DIPC   NC313465  14.777  17.391   6.199 -0.1060  0.0253  0.1540
    1DIPC   PO413466  14.541  17.318   5.821  0.0473 -0.2192 -0.0027
    1DIPC   GL113467  14.653  17.342   5.445  0.1796 -0.1241 -0.0255
    1DIPC   GL213468  14.485  17.015   5.318  0.0727 -0.1192  0.0730
    1DIPC   C1A13469  14.705  17.382   4.985  0.1405  0.2319 -0.0816
    1DIPC   D2A13470  14.651  17.767   4.674  0.0371  0.2484 -0.0611
    1DIPC   D3A13471  14.542  17.477   4.384  0.1667  0.0164 -0.0131
    1DIPC   C4A13472  14.816  17.081   4.316 -0.0730  0.0927 -0.1523
    1DIPC   C1B13473  14.379  16.973   4.862 -0.1777 -0.0557  0.1087
    1DIPC   D2B13474  14.195  16.875   4.488 -0.0592 -0.1113 -0.1849
    1DIPC   D3B13475  14.289  17.067   4.177 -0.3521 -0.0520  0.0724
    1DIPC   C4B13476  14.265  16.701   3.966 -0.1249  0.1301 -0.1746
    1DIPC   NC313477   0.197  29.450   5.970  0.0268  0.0243  0.0761
    1DIPC   PO413478   0.672  29.660   5.900  0.1626 -0.0054  0.0040
    1DIPC   GL113479   0.521  29.772   5.546  0.2478  0.0736 -0.3959
    1DIPC   GL213480   0.204  29.631   5.527 -0.4399 -0.0032  0.0027
    1DIPC   C1A13481   0.538  29.729   5.101  0.0051  0.1920  0.0811
    1DIPC   D2A13482   0.319  29.480   4.722 -0.1223 -0.0862 -0.1947
    1DIPC   D3A13483   0.443  29.660   4.336  0.1304  0.0873  0.0452
    1DIPC   C4A13484   0.462  29.356   4.146  0.3282 -0.3239  0.5394
    1DIPC   C1B13485   0.047  29.525   5.178 -0.0031  0.1365  0.0960
    1DIPC   D2B13486  29.696  29.514   4.779 -0.5222  0.3244  0.1966
    1DIPC   D3B13487  29.670  29.846   4.815 -0.3614 -0.0538 -0.0058
    1DIPC   C4B13488  29.300   0.245   4.630  0.2739  0.1453  0.0788
    1DIPC   NC313489  28.788   8.267   7.040 -0.0370  0.0009 -0.2705
    1DIPC   PO413490  28.710   8.340   6.663  0.2981  0.2036 -0.1499
    1DIPC   GL113491  28.603   8.526   6.218  0.0244 -0.2439 -0.0525
    1DIPC   GL213492  28.583   8.899   6.066 -0.0985  0.0085 -0.0646
    1DIPC   C1A13493  28.348   8.333   5.933  0.1409  0.0811 -0.5029
    1DIPC   D2A13494  27.984   8.402   5.602  0.1593 -0.0617 -0.0919
    1DIPC   D3A13495  27.808   8.105   5.308 -0.0590  0.0150  0.0398
    1DIPC   C4A13496  27.464   7.982   5.543  0.0619  0.1962  0.0496
    1DIPC   C1B13497  28.760   8.772   5.662 -0.1020  0.2654  0.0152
    1DIPC   D2B13498  28.537   8.461   5.505 -0.1272  0.0399  0.1349
    1DIPC   D3B13499  28.923   8.499   5.238 -0.0875  0.0154 -0.2096
    1DIPC   C4B13500  28.928   8.903   5.114 -0.0761  0.0930 -0.1275
    1DIPC   NC313501   9.537   8.130   6.745  0.0917  0.0248 -0.1018
    1DIPC   PO413502   9.053   8.101   6.844  0.0611 -0.1489 -0.3025
    1DIPC   GL113503   9.090   8.073   6.382  0.0393  0.3669 -0.0486
    1DIPC   GL213504   9.458   7.973   6.247 -0.0077  0.0427  0.0750
    1DIPC   C1A13505   8.950   7.952   5.979  0.0518  0.3613 -0.0791
    1DIPC   D2A13506   9.053   7.514   5.624  0.2238  0.0848 -0.3580
    1DIPC   D3A13507   8.810   7.515   5.236  0.0189 -0.1152 -0.0949
    1DIPC   C4A13508   8.893   7.550   4.880 -0.2051  0.0729  0.1295
    1DIPC   C1B13509   9.570   7.762   5.876 -0.2062 -0.2801  0.1949
    1DIPC   D2B13510   9.810   7.874   5.493 -0.0869  0.1427  0.2317
    1DIPC   D3B13511   9.547   8.125   5.232  0.0966 -0.2506  0.0055
    1DIPC   C4B13512   9.078   8.430   5.292  0.1597  0.1441  0.0585
    1DIPC   NC313513  17.224   5.608   8.487 -0.0264 -0.0338 -0.2115
    1DIPC   PO413514  17.099   5.638   8.093 -0.1878 -0.0401 -0.0591
    1DIPC   GL113515  17.312   5.578   7.743  0.3015  0.0219 -0.0669
    1DIPC   GL213516  17.034   5.459   7.568 -0.0069 -0.2139  0.0423
    1DIPC   C1A13517  17.488   5.819   7.319  0.3116  0.1826 -0.1020
    1DIPC   D2A13518  17.485   5.867   6.830  0.0575  0.0037 -0.1306
    1DIPC   D3A13519  17.750   5.753   6.412 -0.2210  0.3362  0.1061
    1DIPC   C4A13520  17.506   5.817   6.021 -0.1333  0.0787  0.2341
    1DIPC   C1B13521  17.190   5.418   7.237 -0.2689  0.1171 -0.1747
    1DIPC   D2B13522  17.516   5.345   6.907 -0.1848  0.1945 -0.4641
    1DIPC   D3B13523  17.594   5.135   6.554 -0.0033  0.1040  0.6251
    1DIPC   C4B13524  17.826   4.880   6.454  0.0292 -0.0181  0.5350
    1DIPC   NC313525  11.041  25.435   6.353 -0.0491  0.1288 -0.3696
    1DIPC   PO413526  11.174  25.806   6.552 -0.0929  0.3809 -0.0761
    1DIPC   GL113527  11.391  25.765   6.022 -0.4118  0.0933  0.3061
    1DIPC   GL213528  11.488  25.536   5.695 -0.0647  0.2142  0.2193
    1DIPC   C1A13529  11.203  25.829   5.495 -0.1387  0.3051 -0.0400
    1DIPC   D2A13530  10.774  25.709   5.301 -0.0425 -0.1738 -0.1308
    1DIPC   D3A13531  10.960  26.071   5.116  0.0823  0.0588  0.0548
    1DIPC   C4A13532  10.880  26.466   5.098  0.0633 -0.1018  0.0829
    1DIPC   C1B13533  11.587  25.765   5.242  0.0527 -0.0730 -0.1157
    1DIPC   D2B13534  11.423  25.714   4.815  0.1355 -0.3506  0.1644
    1DIPC   D3B13535  11.428  25.622   4.453  0.1866 -0.0293  0.3560
    1DIPC   C4B13536  11.237  25.913   4.167 -0.2498  0.0337 -0.2765
    1DIPC   NC313537   7.178  19.764   5.841  0.2805  0.0564  0.0546
    1DIPC   PO413538   7.552  20.016   5.873  0.0798 -0.5659 -0.1514
    1DIPC   GL113539   7.457  19.887   5.429 -0.0076  0.2552  0.2323
    1DIPC   GL213540   7.088  19.917   5.387 -0.1076 -0.2461 -0.0217
    1DIPC   C1A13541   7.476  19.559   5.189 -0.2943 -0.2928 -0.2766
    1DIPC   D2A13542   7.373  19.446   4.715 -0.0159  0.1196  0.3357
    1DIPC   D3A13543   7.615  19.109   4.688  0.0425  0.2267 -0.1686
    1DIPC   C4A13544   7.966  18.939   4.393  0.1090  0.1346  0.0594
    1DIPC   C1B13545   7.049  19.811   4.903  0.1134  0.1193 -0.0428
    1DIPC   D2B13546   6.823  19.665   4.595  0.1141  0.0520  0.2426
    1DIPC   D3B13547   6.578  19.961   4.852  0.1148  0.4341 -0.0850
    1DIPC   C4B13548   6.629  19.891   5.251  0.1819 -0.1083  0.1594
    1DIPC   NC313549   4.518   1.484   6.192  0.1629 -0.0253  0.0704
    1DIPC   PO413550   4.744   1.730   6.388 -0.0566 -0.0499 -0.3864
    1DIPC   GL113551   4.554   2.025   6.072 -0.0277 -0.1420  0.0445
    1DIPC   GL213552   4.711   1.766   5.871  0.1516 -0.1447  0.1346
    1DIPC   C1A13553   4.704   2.485   5.977 -0.0905 -0.2048  0.2626
    1DIPC   D2A13554   4.700   2.666   5.546 -0.0498  0.4240  0.2932
    1DIPC   D3A13555   4.661   2.487   5.110  0.2297 -0.0872  0.1731
    1DIPC   C4A13556   4.471   2.382   4.805 -0.1884 -0.1724  0.0079
    1DIPC   C1B13557   4.905   2.101   5.562  0.0800  0.0764  0.1743
    1DIPC   D2B13558   5.085   2.209   5.285 -0.2063 -0.2890  0.2527
    1DIPC   D3B13559   5.167   2.563   5.577 -0.1123 -0.0216 -0.0101
    1DIPC   C4B13560   5.447   2.919   5.502 -0.3060  0.1998 -0.3354
    1DIPC   NC313561  15.061   3.210   7.863 -0.1864  0.1312 -0.0919
    1DIPC   PO413562  15.449   2.976   8.092  0.1248  0.2338 -0.2386
    1DIPC   GL113563  15.612   3.133   7.675  0.3718  0.1703  0.2115
    1DIPC   GL213564  15.383   3.224   7.387  0.2133  0.1754 -0.0552
    1DIPC   C1A13565  15.875   3.207   7.295 -0.1783 -0.0366 -0.0951
    1DIPC   D2A13566  16.137   3.500   7.168  0.1717  0.0053 -0.1186
    1DIPC   D3A13567  15.978   3.877   6.949 -0.3512 -0.0727  0.0362
    1DIPC   C4A13568  15.952   3.794   6.506 -0.4744 -0.2350 -0.0205
    1DIPC   C1B13569  15.333   2.948   7.045  0.2079 -0.6027 -0.1185
    1DIPC   D2B13570  15.454   3.056   6.738  0.3102 -0.0719  0.0198
    1DIPC   D3B13571  15.955   3.066   6.763  0.0665  0.0966 -0.0047
    1DIPC   C4B13572  16.078   3.302   6.391  0.1461 -0.2189 -0.1785
    1DIPC   NC313573   5.421  14.533   6.468 -0.0630 -0.0107  0.0820
    1DIPC   PO413574   5.045  14.718   6.207 -0.4188  0.0378  0.2716
    1DIPC   GL113575   4.990  14.936   5.844 -0.1594 -0.0219  0.1960
    1DIPC   GL213576   5.297  15.139   5.786 -0.0182  0.2016  0.5070
    1DIPC   C1A13577   4.810  14.965   5.420  0.1789 -0.1128 -0.0300
    1DIPC   D2A13578   4.467  15.134   5.225  0.3106  0.2345 -0.1563
    1DIPC   D3A13579   4.668  15.078   4.800 -0.1736 -0.1123  0.1035
    1DIPC   C4A13580   4.408  14.965   4.363  0.0822 -0.0359 -0.2008
    1DIPC   C1B13581   5.205  15.308   5.404 -0.1881  0.3772 -0.0700
    1DIPC   D2B13582   4.980  15.394   5.064  0.1725  0.1538 -0.0567
    1DIPC   D3B13583   5.220  15.726   4.857 -0.0085  0.1283  0.0131
    1DIPC   C4B13584   4.810  16.090   4.739  0.2232  0.3191 -0.0990
    1DIPC   NC313585  14.978   0.667   7.519 -0.1099 -0.0220 -0.0826
    1DIPC   PO413586  14.808   0.899   7.184 -0.3131 -0.0257 -0.1710
    1DIPC   GL113587  14.766   0.899   6.775  0.1069 -0.2578 -0.1050
    1DIPC   GL213588  14.984   0.834   6.548 -0.5294 -0.0158 -0.0562
    1DIPC   C1A13589  14.620   1.199   6.473 -0.2102 -0.2604  0.1206
    1DIPC   D2A13590  14.499   1.429   6.155 -0.5431  0.0431 -0.4344
    1DIPC   D3A13591  14.279   0.993   5.982 -0.2722 -0.0013  0.0226
    1DIPC   C4A13592  14.494   0.688   5.720 -0.2108 -0.0896  0.0625
    1DIPC   C1B13593  15.279   0.872   6.236  0.0353 -0.2191  0.2969
    1DIPC   D2B13594  15.331   0.628   5.830 -0.0160 -0.0335 -0.1322
    1DIPC   D3B13595  15.397   1.109   5.796 -0.0224 -0.3375 -0.4336
    1DIPC   C4B13596  15.508   1.370   6.139  0.3965  0.2462  0.1555
    1DIPC   NC313597  28.187  19.436   6.758 -0.1623  0.0429 -0.4421
    1DIPC   PO413598  28.275  19.356   6.326 -0.2441  0.2230  0.0066
    1DIPC   GL113599  28.233  19.563   5.865  0.3946  0.1081 -0.1343
    1DIPC   GL213600  28.440  19.741   5.950 -0.3410  0.0621 -0.0804
    1DIPC   C1A13601  28.192  19.414   5.484  0.0861 -0.0083 -0.4014
    1DIPC   D2A13602  28.047  19.520   5.102 -0.0149 -0.1503  0.0202
    1DIPC   D3A13603  27.688  19.375   5.208  0.0037 -0.1199 -0.0902
    1DIPC   C4A13604  27.770  19.060   5.455 -0.1302  0.1826  0.0131
    1DIPC   C1B13605  28.485  19.801   5.552  0.1062  0.0340 -0.1201
    1DIPC   D2B13606  28.391  19.859   5.156 -0.1233  0.2033  0.1262
    1DIPC   D3B13607  28.404  19.696   4.766  0.1898 -0.4411  0.1116
    1DIPC   C4B13608  28.205  19.342   4.670  0.2915 -0.0318  0.0433
    1DIPC   NC313609  26.456   3.910   6.911 -0.1133 -0.2413 -0.0360
    1DIPC   PO413610  26.771   3.978   6.580  0.1471  0.0599  0.0257
    1DIPC   GL113611  26.740   3.810   6.260  0.0307  0.1975  0.1664
    1DIPC   GL213612  27.049   3.655   6.121 -0.3438  0.1180 -0.1558
    1DIPC   C1A13613  26.777   3.916   5.806  0.1047 -0.1207 -0.2137
    1DIPC   D2A13614  26.734   3.857   5.376 -0.3044  0.1346 -0.0762
    1DIPC   D3A13615  26.989   4.261   5.425 -0.2339 -0.0273 -0.1056
    1DIPC   C4A13616  27.159   4.364   5.149  0.0095 -0.1222  0.0338
    1DIPC   C1B13617  26.950   3.432   5.775 -0.1531  0.1724  0.2384
    1DIPC   D2B13618  27.095   3.429   5.353  0.1144 -0.2488 -0.2280
    1DIPC   D3B13619  26.674   3.285   5.258  0.2665 -0.2508  0.0454
    1DIPC   C4B13620  26.456   3.161   4.784 -0.0156 -0.0783  0.2167
    1DIPC   NC313621   6.022  10.243   7.339 -0.1951 -0.3492 -0.1099
    1DIPC   PO413622   6.105  10.402   6.957 -0.1198  0.1469 -0.0247
    1DIPC   GL113623   5.895  10.304   6.552  0.1491  0.1233  0.1264
    1DIPC   GL213624   5.610  10.386   6.513  0.1046  0.5997 -0.1082
    1DIPC   C1A13625   5.876  10.109   6.115 -0.0290  0.4691 -0.0927
    1DIPC   D2A13626   5.656  10.321   5.676 -0.0776  0.0358 -0.1829
    1DIPC   D3A13627   5.971  10.026   5.559  0.2002  0.0345  0.0387
    1DIPC   C4A13628   5.855   9.619   5.422 -0.0091 -0.1101  0.0773
    1DIPC   C1B13629   5.312  10.354   6.181 -0.0038 -0.6350  0.1464
    1DIPC   D2B13630   5.049  10.535   5.875  0.0943  0.1586 -0.2586
    1DIPC   D3B13631   5.172  10.179   5.562  0.1074 -0.0441  0.0940
    1DIPC   C4B13632   4.863  10.141   5.293  0.3461  0.0925 -0.0502
    1DIPC   NC313633   2.226  26.486   5.497  0.1508 -0.0917 -0.2280
    1DIPC   PO413634   2.083  26.882   5.207 -0.2084  0.1382 -0.2994
    1DIPC   GL113635   2.239  26.971   4.806 -0.1115  0.2774  0.0559
    1DIPC   GL213636   1.982  27.016   4.701 -0.0965  0.0090  0.1323
    1DIPC   C1A13637   2.351  26.713   4.513  0.0792  0.0229  0.1611
    1DIPC   D2A13638   2.683  26.795   4.242  0.1645 -0.2294  0.0280
    1DIPC   D3A13639   2.619  26.543   3.855 -0.0097  0.0188  0.1533
    1DIPC   C4A13640   2.428  26.722   3.497 -0.0115 -0.0540  0.0795
    1DIPC   C1B13641   1.962  26.952   4.308 -0.2346  0.4159  0.1727
    1DIPC   D2B13642   2.268  26.823   3.953  0.3369  0.0735  0.1801
    1DIPC   D3B13643   2.473  27.208   4.059  0.2170 -0.1802 -0.1613
    1DIPC   C4B13644   2.995  27.270   3.998 -0.0109 -0.0999 -0.0635
    1DIPC   NC313645   8.548  29.267   6.907  0.0536  0.0968 -0.1627
    1DIPC   PO413646   8.675  29.189   6.477 -0.1652  0.0289  0.0506
    1DIPC   GL113647   8.612  29.311   6.071  0.0959 -0.0882  0.4111
    1DIPC   GL213648   8.919  29.400   5.940 -0.1420 -0.1125 -0.0368
    1DIPC   C1A13649   8.551  29.291   5.597 -0.3006 -0.0787 -0.0508
    1DIPC   D2A13650   8.157  29.464   5.269 -0.0416 -0.1714  0.1978
    1DIPC   D3A13651   8.253   0.021   5.230 -0.2180 -0.0005 -0.0506
    1DIPC   C4A13652   8.721   0.195   5.087 -0.0854  0.2564 -0.2494
    1DIPC   C1B13653   9.068  29.522   5.476 -0.1273  0.0771 -0.0130
    1DIPC   D2B13654   9.537  29.365   5.296 -0.3052 -0.0034  0.1288
    1DIPC   D3B13655   9.434  29.050   5.092 -0.1982 -0.1572 -0.2934
    1DIPC   C4B13656   9.103  29.054   4.678  0.0476  0.1546 -0.0221
    1DIPC   NC313657  10.253  29.374   7.122 -0.0093  0.2457 -0.2921
    1DIPC   PO413658  10.695  29.479   7.262  0.0238  0.4561  0.1150
    1DIPC   GL113659  10.836  29.481   6.799  0.0677  0.0676 -0.0068
    1DIPC   GL213660  10.763  29.340   6.499 -0.0407 -0.2460  0.1310
    1DIPC   C1A13661  11.151  29.685   6.574 -0.1616  0.1059 -0.4058
    1DIPC   D2A13662  11.268   0.006   6.203  0.2383  0.1107 -0.0788
    1DIPC   D3A13663  11.357  29.645   5.831 -0.1505 -0.3998 -0.1031
    1DIPC   C4A13664  11.215   0.020   5.481 -0.1277  0.3329 -0.1767
    1DIPC   C1B13665  10.596  29.793   6.356 -0.2394  0.0065  0.0835
    1DIPC   D2B13666  10.780   0.285   6.286  0.0792 -0.0323  0.0074
    1DIPC   D3B13667  10.376   0.452   6.298  0.1958 -0.2262  0.1729
    1DIPC   C4B13668  10.092   0.139   6.400  0.2025  0.2386 -0.0701
    1DIPC   NC313669  28.823  25.316   6.393  0.1800  0.2470  0.0612
    1DIPC   PO413670  28.471  25.569   6.344 -0.1030  0.1234  0.1541
    1DIPC   GL113671  28.419  25.262   6.011 -0.0317 -0.0056  0.0717
    1DIPC   GL213672  28.556  24.894   6.040 -0.0731 -0.1454 -0.0218
    1DIPC   C1A13673  28.045  25.140   5.831  0.0539  0.1525  0.5738
    1DIPC   D2A13674  27.792  24.721   5.763 -0.1068 -0.0932 -0.0462
    1DIPC   D3A13675  27.864  24.892   5.351 -0.1384 -0.2402  0.1557
    1DIPC   C4A13676  27.726  25.225   5.113 -0.0719  0.0461 -0.0943
    1DIPC   C1B13677  28.339  24.818   5.545  0.0555  0.0885 -0.3090
    1DIPC   D2B13678  28.160  24.607   5.064  0.0726 -0.3661  0.1460
    1DIPC   D3B13679  28.278  24.689   4.617 -0.1564 -0.0588  0.0354
    1DIPC   C4B13680  28.493  25.174   4.478  0.0422 -0.3057 -0.1486
    1CHOL   ROH13681  22.796   2.767   6.989  0.3753 -0.1784 -0.0993
    1CHOL    R113682  22.852   2.897   6.744  0.1975 -0.0987 -0.0998
    1CHOL    R213683  22.657   2.950   6.556  0.0659 -0.0771  0.0367
    1CHOL    R313684  22.750   3.205   6.579  0.0376 -0.0687  0.0535
    1CHOL    R413685  22.725   3.161   6.290  0.0296 -0.0419  0.0555
    1CHOL    R513686  22.902   3.230   6.396  0.0244 -0.0315  0.0505
    1CHOL    C113687  22.850   3.523   6.157 -0.0183 -0.0134  0.0822
    1CHOL    C213688  22.833   3.687   5.711 -0.0950  0.5599  0.1529
    1CHOL   ROH13689  26.142  13.091   3.577 -0.2640 -0.1827 -0.0582
    1CHOL    R113690  26.243  13.002   3.826 -0.0707  0.0671 -0.0459
    1CHOL    R213691  26.264  13.168   4.046 -0.5710  0.1137 -0.0312
    1CHOL    R313692  26.119  12.973   4.167 -0.0713 -0.3053 -0.0726
    1CHOL    R413693  26.274  13.098   4.384 -0.6401  0.3210  0.0168
    1CHOL    R513694  26.267  12.885   4.334  0.0835  0.2470  0.1081
    1CHOL    C113695  26.144  12.873   4.695 -0.2110  0.0485  0.0060
    1CHOL    C213696  26.360  12.820   4.940  0.1637  0.1028 -0.0967
    1CHOL   ROH13697  19.265  11.463   3.098  0.3572  0.0382 -0.1144
    1CHOL    R113698  19.181  11.565   3.348  0.1938 -0.0444 -0.1352
    1CHOL    R213699  19.099  11.403   3.556  0.2433 -0.1212 -0.1807
    1CHOL    R313700  19.289  11.539   3.694  0.0926  0.0095 -0.0981
    1CHOL    R413701  19.089  11.465   3.895  0.1180 -0.2553 -0.1581
    1CHOL    R513702  19.165  11.665   3.856 -0.0614 -0.1636 -0.0731
    1CHOL    C113703  19.261  11.629   4.224 -0.0965 -0.2107 -0.0675
    1CHOL    C213704  19.031  11.648   4.497  0.2672  0.2519  0.2105
    1CHOL   ROH13705   8.499  12.964   5.653  0.0276 -0.1726  0.0641
    1CHOL    R113706   8.447  12.967   5.375 -0.1467  0.0718  0.0968
    1CHOL    R213707   8.461  12.739   5.219  0.0932  0.2686 -0.1696
    1CHOL    R313708   8.208  12.810   5.149 -0.0593 -0.0201  0.0652
    1CHOL    R413709   8.284  12.604   4.955  0.1610  0.3352 -0.2508
    1CHOL    R513710   8.208  12.803   4.910 -0.1711  0.2923  0.0484
    1CHOL    C113711   7.943  12.591   4.736  0.0573  0.1030 -0.0778
    1CHOL    C213712   7.958  12.349   4.429  0.0463 -0.0006 -0.1558
    1CHOL   ROH13713  18.745  13.244   6.361 -0.1078 -0.1263  0.0390
    1CHOL    R113714  18.784  13.221   6.081 -0.1779  0.0755  0.0102
    1CHOL    R213715  18.811  12.977   5.954  0.2429  0.1714 -0.1098
    1CHOL    R313716  18.607  13.072   5.801 -0.0131 -0.1460  0.0230
    1CHOL    R413717  18.756  12.891   5.624  0.1338  0.0669 -0.0649
    1CHOL    R513718  18.704  13.099   5.584 -0.2097 -0.0131 -0.0479
    1CHOL    C113719  18.533  12.930   5.288 -0.1702 -0.2918  0.0859
    1CHOL    C213720  18.751  13.143   5.006  0.0313  0.1551  0.0084
    1CHOL   ROH13721  17.021  23.187   3.018 -0.0890  0.2796  0.0682
    1CHOL    R113722  17.280  23.259   3.108 -0.0524  0.2419 -0.0087
    1CHOL    R213723  17.376  23.517   3.095 -0.0785  0.2565  0.1085
    1CHOL    R313724  17.421  23.480   3.360  0.0515  0.0938  0.0653
    1CHOL    R413725  17.623  23.676   3.277 -0.0861  0.2632  0.1134
    1CHOL    R513726  17.660  23.488   3.381  0.0587  0.2063 -0.0315
    1CHOL    C113727  17.809  23.733   3.632  0.0314  0.1145  0.0757
    1CHOL    C213728  18.115  23.978   3.691 -0.1277  0.1152 -0.3218
    1CHOL   ROH13729  24.266  11.865   6.682 -0.0981 -0.0654  0.0267
    1CHOL    R113730  24.431  11.773   6.472  0.0348  0.1575  0.0312
    1CHOL    R213731  24.344  11.591   6.283  0.3132 -0.0289  0.0823
    1CHOL    R313732  24.425  11.782   6.108 -0.0150  0.0680  0.0286
    1CHOL    R413733  24.352  11.552   5.940  0.3925 -0.1256  0.0940
    1CHOL    R513734  24.542  11.660   5.938  0.2110  0.2141  0.0712
    1CHOL    C113735  24.433  11.709   5.575  0.1307 -0.0908  0.0505
    1CHOL    C213736  24.439  11.710   5.313 -0.2165  0.0019  0.1223
    1CHOL   ROH13737   7.044   1.708   4.281  0.2082  0.2640  0.2502
    1CHOL    R113738   6.842   1.657   4.473 -0.0789  0.2231 -0.0520
    1CHOL    R213739   6.619   1.504   4.417  0.2381 -0.1930 -0.2759
    1CHOL    R313740   6.700   1.364   4.635  0.0644  0.2196  0.0646
    1CHOL    R413741   6.411   1.321   4.623  0.1293 -0.0796 -0.2856
    1CHOL    R513742   6.523   1.394   4.794 -0.1903  0.2930 -0.2310
    1CHOL    C113743   6.365   1.083   4.948 -0.0971  0.3737  0.0283
    1CHOL    C213744   6.192   0.748   5.045  0.0202  0.3375  0.1478
    1CHOL   ROH13745  26.311  17.809   5.864 -0.3407  0.3186 -0.0719
    1CHOL    R113746  26.285  17.712   5.599  0.0029  0.1864 -0.0621
    1CHOL    R213747  26.084  17.794   5.429 -0.0668 -0.2504 -0.2090
    1CHOL    R313748  26.292  17.853   5.264 -0.0726  0.1057 -0.0973
    1CHOL    R413749  26.070  17.790   5.083  0.0949 -0.1364 -0.2179
    1CHOL    R513750  26.268  17.700   5.081  0.2234  0.1421 -0.1688
    1CHOL    C113751  26.257  17.842   4.727  0.1837  0.2642 -0.1182
    1CHOL    C213752  26.519  17.523   4.505 -0.0930  0.0433 -0.0364
    1CHOL   ROH13753  26.991   9.747   6.606  0.2191  0.3570 -0.1709
    1CHOL    R113754  26.934   9.806   6.336 -0.0593  0.0834 -0.1773
    1CHOL    R213755  27.125   9.791   6.136 -0.1508  0.3005 -0.2835
    1CHOL    R313756  26.942   9.627   6.019  0.0625 -0.1093 -0.0678
    1CHOL    R413757  27.156   9.651   5.821 -0.1624  0.2889 -0.2797
    1CHOL    R513758  26.944   9.690   5.788 -0.2857 -0.1514 -0.0898
    1CHOL    C113759  27.002   9.417   5.528  0.0312 -0.1026 -0.0749
    1CHOL    C213760  27.122   9.022   5.397 -0.0822  0.2953  0.0514
    1CHOL   ROH13761  22.910  20.244   2.974  0.0065 -0.0331  0.1317
    1CHOL    R113762  22.755  20.084   3.148 -0.0838  0.0150  0.0952
    1CHOL    R213763  22.846  19.843   3.250 -0.2125 -0.0493  0.0540
    1CHOL    R313764  22.784  19.958   3.489 -0.1645 -0.0637  0.0742
    1CHOL    R413765  22.806  19.672   3.547 -0.2357 -0.0814  0.0330
    1CHOL    R513766  22.637  19.801   3.594 -0.1999 -0.0410  0.0629
    1CHOL    C113767  22.724  19.680   3.944 -0.2041 -0.1135  0.0397
    1CHOL    C213768  22.615  19.369   3.907  0.1458  0.0297  0.0994
    1CHOL   ROH13769   9.260  22.195   2.473 -0.1122 -0.1237  0.1214
    1CHOL    R113770   9.194  22.291   2.731 -0.1294  0.0284  0.0612
    1CHOL    R213771   9.383  22.326   2.930 -0.1607  0.0390  0.0863
    1CHOL    R313772   9.282  22.578   2.937 -0.0507  0.0882 -0.0535
    1CHOL    R413773   9.434  22.554   3.185 -0.2053  0.0906  0.0495
    1CHOL    R513774   9.226  22.615   3.167 -0.1710  0.1815 -0.0936
    1CHOL    C113775   9.370  22.923   3.340 -0.1282  0.1671 -0.1032
    1CHOL    C213776   9.238  23.191   3.697 -0.2223 -0.1627  0.1200
    1CHOL   ROH13777  25.381   2.306   6.398 -0.3113  0.0637 -0.0455
    1CHOL    R113778  25.249   2.367   6.155 -0.2030  0.1768 -0.0767
    1CHOL    R213779  25.135   2.614   6.106 -0.0681  0.2435 -0.0651
    1CHOL    R313780  25.293   2.606   5.884  0.0019  0.2119 -0.0145
    1CHOL    R413781  25.121   2.841   5.846 -0.1715  0.0537 -0.2286
    1CHOL    R513782  25.148   2.676   5.706 -0.0020 -0.0239 -0.1067
    1CHOL    C113783  25.261   2.967   5.487 -0.1660 -0.0864 -0.2763
    1CHOL    C213784  25.179   3.331   5.288  0.1835 -0.2130  0.0062
    1CHOL   ROH13785  26.294   4.280   6.405  0.0405  0.2153  0.0648
    1CHOL    R113786  26.327   4.216   6.131  0.2293  0.1646  0.0988
    1CHOL    R213787  26.166   4.321   5.933  0.0514 -0.2422  0.0212
    1CHOL    R313788  26.404   4.396   5.824 -0.0701  0.1968  0.0391
    1CHOL    R413789  26.237   4.321   5.595  0.0891 -0.1636  0.0285
    1CHOL    R513790  26.436   4.245   5.641  0.2399  0.2198  0.0661
    1CHOL    C113791  26.501   4.392   5.296 -0.0029  0.2943  0.0497
    1CHOL    C213792  26.477   4.499   4.919  0.0702 -0.1062 -0.0735
    1CHOL   ROH13793   7.904   0.545   6.186 -0.1486  0.2033  0.0697
    1CHOL    R113794   7.757   0.603   5.952 -0.0447  0.1161 -0.0177
    1CHOL    R213795   7.668   0.858   5.891 -0.1189  0.0687 -0.0914
    1CHOL    R313796   7.800   0.813   5.658  0.0251  0.1036 -0.0182
    1CHOL    R413797   7.633   1.047   5.604 -0.2508 -0.1162 -0.2000
    1CHOL    R513798   7.640   0.864   5.487  0.0165 -0.1784 -0.1048
    1CHOL    C113799   7.737   1.116   5.218 -0.1924 -0.1910 -0.1945
    1CHOL    C213800   7.580   1.411   4.941  0.0110 -0.1232  0.2257
    1CHOL   ROH13801  16.709   3.893   4.676  0.2414 -0.3612 -0.0188
    1CHOL    R113802  16.526   3.998   4.865  0.0618 -0.4084 -0.1627
    1CHOL    R213803  16.376   3.837   5.031  0.2176 -0.4452 -0.0459
    1CHOL    R313804  16.486   3.991   5.226 -0.0130 -0.1202 -0.1647
    1CHOL    R413805  16.253   3.866   5.353  0.1430 -0.3135 -0.0863
    1CHOL    R513806  16.298   4.079   5.346 -0.1419 -0.2607 -0.2692
    1CHOL    C113807  16.285   4.027   5.723 -0.1170  0.0683 -0.2214
    1CHOL    C213808  16.404   3.947   6.122  0.3163  0.0452 -0.2456
    1CHOL   ROH13809  17.452  12.904   6.586  0.0177 -0.0690  0.0806
    1CHOL    R113810  17.566  12.889   6.327 -0.1034  0.1132  0.0151
    1CHOL    R213811  17.588  12.652   6.188  0.2255  0.1391  0.0187
    1CHOL    R313812  17.455  12.789   5.995 -0.1270 -0.0966  0.0845
    1CHOL    R413813  17.581  12.565   5.854  0.2182  0.1256  0.0223
    1CHOL    R513814  17.598  12.776   5.803 -0.1927  0.1671  0.0124
    1CHOL    C113815  17.451  12.643   5.478 -0.1170 -0.1036  0.0861
    1CHOL    C213816  17.408  12.378   5.385  0.0416 -0.0318  0.0279
    1CHOL   ROH13817  10.600  25.745   4.843 -0.0846  0.0855  0.1564
    1CHOL    R113818  10.481  25.989   4.764 -0.0475 -0.0117 -0.2216
    1CHOL    R213819  10.357  26.022   4.519 -0.3721 -0.4865 -0.1378
    1CHOL    R313820  10.148  26.104   4.672 -0.1118 -0.0279 -0.0094
    1CHOL    R413821  10.079  26.190   4.401 -0.2873 -0.2769 -0.0422
    1CHOL    R513822  10.084  26.315   4.579  0.0601 -0.0594 -0.1991
    1CHOL    C113823   9.720  26.365   4.477  0.0065  0.2755  0.1341
    1CHOL    C213824   9.632  26.820   4.315  0.0081 -0.0693  0.2445
    1CHOL   ROH13825   0.509   4.189   3.513 -0.2165 -0.0621 -0.1741
    1CHOL    R113826   0.442   4.206   3.787 -0.0029 -0.0906 -0.1184
    1CHOL    R213827   0.624   4.286   3.980  0.1065  0.0409 -0.2699
    1CHOL    R313828   0.431   4.467   4.040  0.0342 -0.0823 -0.1265
    1CHOL    R413829   0.611   4.472   4.271  0.2737  0.1310 -0.3188
    1CHOL    R513830   0.396   4.441   4.275  0.3012 -0.0277 -0.0796
    1CHOL    C113831   0.422   4.751   4.497  0.3031  0.0678 -0.2127
    1CHOL    C213832   0.278   4.854   4.804 -0.0721 -0.1849 -0.0974
    1CHOL   ROH13833  23.635   3.383   7.047 -0.1705 -0.1152 -0.2738
    1CHOL    R113834  23.800   3.527   6.868 -0.0392  0.0255 -0.0435
    1CHOL    R213835  23.809   3.473   6.597  0.3799  0.0369 -0.0367
    1CHOL    R313836  23.752   3.738   6.575  0.1902 -0.0081 -0.1079
    1CHOL    R413837  23.799   3.649   6.300  0.1241 -0.0776 -0.0990
    1CHOL    R513838  23.896   3.816   6.401  0.0592  0.0268 -0.2039
    1CHOL    C113839  23.739   4.000   6.106 -0.2029 -0.1866 -0.2020
    1CHOL    C213840  23.658   3.941   5.792 -0.2710 -0.4271  0.1350
    1CHOL   ROH13841   6.434  20.720   5.300  0.2231 -0.0738 -0.2052
    1CHOL    R113842   6.308  20.662   5.053  0.1682 -0.0599 -0.1808
    1CHOL    R213843   6.367  20.436   4.906  0.1312 -0.0548 -0.2039
    1CHOL    R313844   6.098  20.397   4.920  0.1334 -0.0496 -0.1473
    1CHOL    R413845   6.187  20.221   4.703  0.0657  0.0539 -0.2614
    1CHOL    R513846   6.029  20.371   4.692  0.0684  0.0672 -0.1421
    1CHOL    C113847   5.830  20.060   4.598  0.0295  0.1220 -0.2419
    1CHOL    C213848   5.465  19.904   4.420 -0.1972  0.1038 -0.3716
    1CHOL   ROH13849  24.824  15.435   3.324  0.1701 -0.1013  0.0311
    1CHOL    R113850  24.596  15.461   3.490  0.0816 -0.1120 -0.0895
    1CHOL    R213851  24.463  15.243   3.595  0.1572 -0.1116 -0.0061
    1CHOL    R313852  24.506  15.371   3.831 -0.0247  0.0709 -0.0664
    1CHOL    R413853  24.296  15.172   3.889  0.2449 -0.2048  0.0231
    1CHOL    R513854  24.287  15.387   3.930 -0.0587 -0.1877 -0.0835
    1CHOL    C113855  24.240  15.250   4.283  0.1253 -0.0878 -0.0165
    1CHOL    C213856  24.305  15.016   4.501  0.2194  0.0375  0.0108
    1CHOL   ROH13857  16.981   8.881   3.838 -0.3469  0.0420  0.0900
    1CHOL    R113858  16.886   8.902   4.104  0.1145 -0.1325  0.2815
    1CHOL    R213859  17.054   8.944   4.319  0.4647  0.1870 -0.0306
    1CHOL    R313860  16.889   9.155   4.366  0.1477 -0.1144  0.2612
    1CHOL    R413861  17.045   9.129   4.611  0.4918  0.0530  0.0549
    1CHOL    R513862  16.828   9.134   4.596  0.4611 -0.3159  0.3263
    1CHOL    C113863  16.885   9.434   4.825  0.2103 -0.3080  0.3786
    1CHOL    C213864  16.998   9.342   5.059 -0.1927  0.0819  0.0718
    1CHOL   ROH13865  22.054  10.698   3.052 -0.0401  0.1646 -0.1353
    1CHOL    R113866  22.067  10.828   3.303  0.0313 -0.0023 -0.0501
    1CHOL    R213867  21.889  10.775   3.508 -0.0076 -0.0296 -0.0857
    1CHOL    R313868  22.117  10.730   3.650 -0.0348 -0.2569 -0.1120
    1CHOL    R413869  21.924  10.832   3.847  0.1237  0.0177 -0.1071
    1CHOL    R513870  22.125  10.910   3.808  0.2060 -0.2265 -0.1603
    1CHOL    C113871  22.158  10.824   4.178  0.1749 -0.1681 -0.1442
    1CHOL    C213872  22.162  10.696   4.458 -0.0858 -0.2459  0.0761
    1CHOL   ROH13873  24.685   4.836   5.621 -0.1787  0.2124 -0.2796
    1CHOL    R113874  24.955   4.851   5.537 -0.1503  0.0441 -0.2184
    1CHOL    R213875  25.166   4.783   5.702 -0.2282  0.0540 -0.1240
    1CHOL    R313876  25.232   4.618   5.496 -0.2353 -0.1007 -0.0067
    1CHOL    R413877  25.488   4.687   5.622 -0.2269 -0.0062 -0.0525
    1CHOL    R513878  25.437   4.709   5.411 -0.2317 -0.1594 -0.0753
    1CHOL    C113879  25.738   4.477   5.381 -0.2327 -0.1865  0.0991
    1CHOL    C213880  26.035   4.603   5.171  0.1533 -0.1301 -0.3178
    1CHOL   ROH13881  27.303   5.429   3.546  0.1607  0.0659  0.0816
    1CHOL    R113882  27.375   5.655   3.700  0.1607  0.0914  0.0428
    1CHOL    R213883  27.245   5.723   3.934  0.1614  0.1309  0.0267
    1CHOL    R313884  27.496   5.717   4.038  0.1603  0.1522  0.0332
    1CHOL    R413885  27.345   5.896   4.216  0.1334  0.1459  0.0283
    1CHOL    R513886  27.533   5.941   4.114  0.1363  0.1607  0.0304
    1CHOL    C113887  27.639   5.992   4.477  0.1158  0.1745  0.0354
    1CHOL    C213888  27.946   5.963   4.709  0.0172 -0.0864  0.0442
    1CHOL   ROH13889  20.532  14.652   2.764 -0.1436 -0.0645 -0.1491
    1CHOL    R113890  20.363  14.692   2.987 -0.0504  0.0640 -0.1016
    1CHOL    R213891  20.404  14.566   3.229 -0.0436  0.0807 -0.0987
    1CHOL    R313892  20.399  14.820   3.326  0.1253  0.0983 -0.1308
    1CHOL    R413893  20.415  14.650   3.564 -0.3847  0.0854 -0.0840
    1CHOL    R513894  20.267  14.805   3.526 -0.1609  0.2612 -0.2964
    1CHOL    C113895  20.417  14.937   3.850 -0.4248  0.1045 -0.1057
    1CHOL    C213896  20.700  15.138   4.179  0.0046  0.0266 -0.2609
    1CHOL   ROH13897  15.740   2.429   5.250  0.0762  0.1853  0.0150
    1CHOL    R113898  15.489   2.543   5.310 -0.0339 -0.0338 -0.0185
    1CHOL    R213899  15.265   2.391   5.363  0.1324 -0.2330  0.1198
    1CHOL    R313900  15.257   2.540   5.590  0.0182 -0.0888  0.0244
    1CHOL    R413901  14.999   2.400   5.583  0.0545 -0.1566  0.0244
    1CHOL    R513902  15.030   2.615   5.604 -0.0057 -0.1343 -0.1016
    1CHOL    C113903  14.836   2.545   5.925 -0.0981  0.0233 -0.1207
    1CHOL    C213904  14.539   2.773   5.686 -0.2928 -0.3085 -0.1596
    1CHOL   ROH13905  17.026  18.603   2.734  0.0218  0.4848 -0.1429
    1CHOL    R113906  16.942  18.797   2.922  0.0905  0.4306 -0.0555
    1CHOL    R213907  16.819  18.730   3.161 -0.0596  0.3709 -0.1514
    1CHOL    R313908  17.018  18.881   3.267  0.0092  0.1560  0.0331
    1CHOL    R413909  16.811  18.878   3.473 -0.0836  0.1514 -0.0461
    1CHOL    R513910  16.905  19.054   3.387  0.0773  0.1523  0.1120
    1CHOL    C113911  16.993  19.106   3.755 -0.0331 -0.1783  0.1885
    1CHOL    C213912  16.930  19.505   3.698  0.0457  0.1371  0.0611
    1CHOL   ROH13913  25.811  12.667   6.402 -0.1253  0.0422  0.0314
    1CHOL    R113914  25.852  12.621   6.126 -0.0585  0.0568  0.0390
    1CHOL    R213915  25.804  12.376   6.007  0.0393  0.0434  0.0282
    1CHOL    R313916  25.648  12.525   5.840  0.0257 -0.0036 -0.0016
    1CHOL    R413917  25.797  12.347   5.662 -0.0373 -0.1029  0.0411
    1CHOL    R513918  25.785  12.564   5.649 -0.0081 -0.1054 -0.0482
    1CHOL    C113919  25.647  12.470   5.306 -0.0948 -0.2323  0.0206
    1CHOL    C213920  25.612  12.177   5.105  0.0413 -0.1560 -0.2728
    1CHOL   ROH13921  21.188   6.958   4.119  0.0371 -0.0158 -0.0199
    1CHOL    R113922  21.051   6.986   4.365 -0.0891 -0.3212 -0.0515
    1CHOL    R213923  21.077   6.804   4.571  0.3854 -0.2029  0.0052
    1CHOL    R313924  21.142   7.025   4.715 -0.2455  0.0367 -0.0467
    1CHOL    R413925  21.068   6.824   4.916  0.3222 -0.1405  0.0002
    1CHOL    R513926  20.986   7.025   4.897 -0.2605 -0.3652 -0.0506
    1CHOL    C113927  21.124   7.044   5.252 -0.3065  0.1209 -0.0514
    1CHOL    C213928  21.126   6.763   5.515 -0.0373  0.0280  0.0718
    1CHOL   ROH13929  23.017  27.313   3.711  0.0298  0.1390 -0.0397
    1CHOL    R113930  22.991  27.486   3.933  0.0070  0.0993 -0.0109
    1CHOL    R213931  22.811  27.439   4.137 -0.0410  0.0802 -0.0515
    1CHOL    R313932  23.032  27.460   4.294 -0.0656  0.0211 -0.0098
    1CHOL    R413933  22.806  27.507   4.476 -0.0710  0.1366 -0.0632
    1CHOL    R513934  22.979  27.637   4.447 -0.0205  0.0616 -0.0483
    1CHOL    C113935  23.010  27.566   4.821 -0.1114  0.1137 -0.0308
    1CHOL    C213936  23.206  27.896   5.020  0.1049 -0.3734  0.0658
    1CHOL   ROH13937  17.283  19.386   4.288 -0.1159 -0.0437 -0.0372
    1CHOL    R113938  17.080  19.272   4.127 -0.1437 -0.0371 -0.0064
    1CHOL    R213939  16.906  19.079   4.222 -0.1374 -0.0277  0.0202
    1CHOL    R313940  16.717  19.254   4.135 -0.1440 -0.0228  0.0450
    1CHOL    R413941  16.574  19.000   4.168 -0.1136 -0.0619 -0.0793
    1CHOL    R513942  16.578  19.124   3.989 -0.0926  0.0075 -0.0342
    1CHOL    C113943  16.203  19.118   4.056 -0.1060 -0.0773 -0.1141
    1CHOL    C213944  16.101  19.179   3.759  0.2327  0.4317 -0.0079
    1CHOL   ROH13945  26.216  14.506   3.131 -0.1747  0.0097 -0.0424
    1CHOL    R113946  26.326  14.523   3.392 -0.0474 -0.0166 -0.0898
    1CHOL    R213947  26.230  14.700   3.582  0.0997  0.0398 -0.0406
    1CHOL    R313948  26.206  14.475   3.732  0.0787  0.0453 -0.0420
    1CHOL    R413949  26.210  14.692   3.927  0.1222  0.0016 -0.0427
    1CHOL    R513950  26.339  14.517   3.926  0.0837 -0.0002 -0.0545
    1CHOL    C113951  26.175  14.475   4.268  0.1153 -0.0154 -0.0454
    1CHOL    C213952  26.134  14.300   4.608 -0.0952 -0.3459 -0.0066
    1CHOL   ROH13953  26.304  14.727   6.754 -0.1498  0.0042 -0.0653
    1CHOL    R113954  26.232  14.831   6.500 -0.1101  0.0584 -0.0543
    1CHOL    R213955  26.420  14.901   6.309 -0.0834  0.0011 -0.0485
    1CHOL    R313956  26.275  14.733   6.153 -0.1535  0.0751 -0.0644
    1CHOL    R413957  26.412  14.910   5.964  0.1235 -0.1275 -0.0582
    1CHOL    R513958  26.198  14.871   5.972  0.0791  0.0783 -0.1643
    1CHOL    C113959  26.272  14.757   5.616  0.1783 -0.1328 -0.0788
    1CHOL    C213960  26.357  14.831   5.268 -0.0517 -0.1191 -0.0669
    1CHOL   ROH13961  16.731  16.502   2.867 -0.1296 -0.0728  0.0055
    1CHOL    R113962  16.608  16.753   2.909 -0.0791 -0.0505  0.0319
    1CHOL    R213963  16.498  16.900   2.703  0.0102  0.0305  0.0323
    1CHOL    R313964  16.277  16.897   2.862 -0.0306  0.0387 -0.0267
    1CHOL    R413965  16.256  17.147   2.710  0.1160  0.1306  0.1171
    1CHOL    R513966  16.248  17.126   2.927  0.0518  0.0103  0.0977
    1CHOL    C113967  15.909  17.289   2.863  0.1395  0.1968  0.1112
    1CHOL    C213968  15.725  17.541   3.072 -0.0714 -0.0372 -0.0903
    1CHOL   ROH13969  15.437  15.600   5.190  0.0351 -0.0944  0.0413
    1CHOL    R113970  15.273  15.451   5.015 -0.0248 -0.0233  0.0355
    1CHOL    R213971  15.276  15.487   4.741 -0.0758  0.0477  0.0417
    1CHOL    R313972  15.323  15.220   4.738 -0.1161  0.0414 -0.0351
    1CHOL    R413973  15.224  15.279   4.470 -0.2324  0.1070  0.0255
    1CHOL    R513974  15.146  15.128   4.606 -0.1897  0.0927  0.0302
    1CHOL    C113975  15.239  14.906   4.310 -0.3615  0.1358 -0.0561
    1CHOL    C213976  15.392  14.745   4.030  0.4168  0.3620  0.2732
    1CHOL   ROH13977  20.229  29.551   6.226  0.5685 -0.2657  0.1037
    1CHOL    R113978  20.011  29.450   6.076  0.4251 -0.0599  0.1684
    1CHOL    R213979  19.911  29.579   5.853  0.4474  0.0616  0.2262
    1CHOL    R313980  19.955  29.339   5.734  0.2032  0.0420  0.1709
    1CHOL    R413981  19.712  29.441   5.606  0.3469  0.3477  0.1431
    1CHOL    R513982  19.736  29.247   5.701  0.1071  0.2940  0.0949
    1CHOL    C113983  19.638  29.135   5.350  0.0593  0.4959  0.0428
    1CHOL    C213984  19.293  29.153   5.315 -0.0359 -0.2351  0.0123
    1CHOL   ROH13985  18.204  10.253   7.056  0.0521 -0.0063 -0.0236
    1CHOL    R113986  18.329  10.178   6.813  0.0373  0.0874 -0.0593
    1CHOL    R213987  18.228   9.979   6.650  0.1001  0.0673 -0.0605
    1CHOL    R313988  18.239  10.173   6.460 -0.0296  0.0926 -0.0454
    1CHOL    R413989  18.123   9.941   6.323  0.2850 -0.0551 -0.1080
    1CHOL    R513990  18.297  10.056   6.259  0.1968  0.1498 -0.0257
    1CHOL    C113991  18.072  10.101   5.955  0.2706 -0.1025 -0.1216
    1CHOL    C213992  18.196   9.708   5.891 -0.3127  0.0850 -0.3480
    1CHOL   ROH13993  10.699   9.719   3.532 -0.0189 -0.1953  0.0818
    1CHOL    R113994  10.778   9.809   3.789  0.0228 -0.0280  0.0138
    1CHOL    R213995  10.803  10.077   3.853 -0.0445  0.0221 -0.1375
    1CHOL    R313996  10.633  10.011   4.054  0.0274  0.0723 -0.0624
    1CHOL    R413997  10.739  10.274   4.129 -0.0026  0.1122 -0.1932
    1CHOL    R513998  10.740  10.094   4.252  0.0641  0.1653 -0.1263
    1CHOL    C113999  10.542  10.327   4.480  0.0892  0.2118 -0.1552
    1CHOL    C214000  10.700  10.684   4.408 -0.1008 -0.2641  0.0837
    1CHOL   ROH14001  21.886  26.685   5.814 -0.1642 -0.0718 -0.0726
    1CHOL    R114002  21.740  26.923   5.769  0.0059  0.0289 -0.1092
    1CHOL    R214003  21.798  27.097   5.562  0.0735 -0.0868 -0.1988
    1CHOL    R314004  21.536  27.062   5.501  0.0253  0.0856 -0.0918
    1CHOL    R414005  21.624  27.278   5.326  0.1476 -0.1388 -0.2922
    1CHOL    R514006  21.453  27.282   5.461  0.1951  0.1160 -0.2488
    1CHOL    C114007  21.276  27.350   5.130  0.1455 -0.0073 -0.2461
    1CHOL    C214008  20.831  27.486   4.985 -0.1333  0.2154  0.0735
    1CHOL   ROH14009  18.813   2.089   7.381  0.1651  0.0753 -0.1074
    1CHOL    R114010  18.977   2.022   7.160  0.1523  0.0671 -0.1164
    1CHOL    R214011  18.889   2.041   6.898  0.1276  0.0365 -0.1169
    1CHOL    R314012  19.112   2.194   6.868  0.1108  0.0531 -0.1424
    1CHOL    R414013  19.051   2.097   6.599  0.0535  0.1061 -0.1428
    1CHOL    R514014  19.241   2.078   6.704  0.0770  0.0963 -0.1951
    1CHOL    C114015  19.355   2.272   6.396 -0.0052  0.1622 -0.1819
    1CHOL    C214016  19.477   2.284   5.973  0.1664 -0.0251 -0.3636
    1CHOL   ROH14017  27.867  12.299   3.337 -0.2642  0.0593 -0.0697
    1CHOL    R114018  27.930  12.058   3.470 -0.2606 -0.0101 -0.1932
    1CHOL    R214019  27.980  12.046   3.741  0.1263 -0.0865 -0.2547
    1CHOL    R314020  27.784  11.857   3.736 -0.0388  0.0756 -0.0077
    1CHOL    R414021  27.875  11.862   4.015  0.3437 -0.0416 -0.1404
    1CHOL    R514022  27.861  11.687   3.886  0.0198 -0.0078 -0.1426
    1CHOL    C114023  27.631  11.578   4.169  0.3151  0.1367  0.1580
    1CHOL    C214024  27.381  11.408   4.462  0.1513  0.1849 -0.2743
    1CHOL   ROH14025  16.513   6.068   7.395 -0.1745  0.0330 -0.1564
    1CHOL    R114026  16.556   6.022   7.119 -0.1297 -0.1421 -0.1210
    1CHOL    R214027  16.503   5.778   6.999 -0.4370 -0.1171 -0.0398
    1CHOL    R314028  16.352   5.931   6.832 -0.1505  0.0374 -0.1654
    1CHOL    R414029  16.405   5.686   6.680 -0.4738 -0.1317 -0.0245
    1CHOL    R514030  16.443   5.890   6.614 -0.1360 -0.2155 -0.1170
    1CHOL    C114031  16.206   5.775   6.338 -0.2266  0.0050 -0.1335
    1CHOL    C214032  16.087   5.780   5.941 -0.3085 -0.3244 -0.2915
    1CHOL   ROH14033  13.474  20.148   5.195 -0.0288  0.0828 -0.1155
    1CHOL    R114034  13.455  20.128   4.914 -0.0561  0.0281 -0.1095
    1CHOL    R214035  13.677  20.120   4.749 -0.0740  0.0204 -0.1301
    1CHOL    R314036  13.561  19.892   4.658 -0.0595 -0.0085 -0.0780
    1CHOL    R414037  13.730  19.983   4.436 -0.0471 -0.0554 -0.0928
    1CHOL    R514038  13.518  19.936   4.426 -0.0468 -0.0671 -0.0934
    1CHOL    C114039  13.652  19.689   4.168 -0.0178 -0.1267 -0.0223
    1CHOL    C214040  13.846  19.582   3.871  0.0483  0.2193  0.0142
    1CHOL   ROH14041  13.353  13.379   5.925 -0.1372  0.0952  0.0007
    1CHOL    R114042  13.233  13.277   5.689 -0.0385  0.1356 -0.0668
    1CHOL    R214043  13.330  13.334   5.437  0.1969  0.0048 -0.0064
    1CHOL    R314044  13.334  13.064   5.413  0.0053 -0.0058  0.0559
    1CHOL    R414045  13.260  13.162   5.146  0.4342  0.0094 -0.0685
    1CHOL    R514046  13.151  13.015   5.265  0.1522  0.1199 -0.1765
    1CHOL    C114047  13.223  12.807   4.953  0.3924  0.0022 -0.0463
    1CHOL    C214048  13.304  12.817   4.595  0.2375 -0.0870 -0.2525
    1CHOL   ROH14049  21.658  12.942   6.631  0.1011  0.0935  0.0529
    1CHOL    R114050  21.478  12.905   6.416  0.0044 -0.0171  0.1519
    1CHOL    R214051  21.286  13.092   6.349  0.0126 -0.0271  0.1093
    1CHOL    R314052  21.401  13.075   6.104 -0.0955 -0.2107  0.0685
    1CHOL    R414053  21.126  13.162   6.051 -0.0019  0.1787  0.1631
    1CHOL    R514054  21.228  12.990   5.962 -0.2731  0.0217  0.1373
    1CHOL    C114055  21.141  13.187   5.647 -0.1117  0.1263  0.1562
    1CHOL    C214056  20.914  12.980   5.384 -0.0693 -0.2134  0.0458
    1CHOL   ROH14057  24.025  24.304   3.482 -0.0792  0.0324 -0.0532
    1CHOL    R114058  24.000  24.574   3.562 -0.1870 -0.0237  0.1075
    1CHOL    R214059  23.992  24.650   3.828  0.1301 -0.1578  0.1610
    1CHOL    R314060  24.198  24.812   3.755 -0.1013  0.0455 -0.0633
    1CHOL    R414061  24.043  24.970   3.947  0.0751 -0.1963  0.2895
    1CHOL    R514062  24.101  25.031   3.746 -0.2857 -0.0181  0.2304
    1CHOL    C114063  24.266  25.308   3.949 -0.1741 -0.0280  0.1539
    1CHOL    C214064  24.202  25.634   3.762 -0.0134 -0.0135 -0.0708
    1CHOL   ROH14065  19.139   7.754   7.131 -0.1552 -0.2602 -0.0128
    1CHOL    R114066  19.178   7.877   6.878 -0.0280 -0.1109  0.0778
    1CHOL    R214067  19.352   7.776   6.689 -0.0033 -0.0523  0.0704
    1CHOL    R314068  19.133   7.784   6.529  0.0516  0.1309  0.0010
    1CHOL    R414069  19.353   7.711   6.350  0.0202 -0.2516  0.1076
    1CHOL    R514070  19.213   7.875   6.323  0.2321 -0.0873 -0.0304
    1CHOL    C114071  19.147   7.680   6.002  0.0856 -0.1955  0.0640
    1CHOL    C214072  19.166   7.851   5.658 -0.0053  0.0319  0.1409
    1CHOL   ROH14073  17.730  20.954   4.825  0.0447  0.2357  0.1133
    1CHOL    R114074  17.792  20.886   4.557 -0.0874  0.2611  0.0756
    1CHOL    R214075  17.802  21.074   4.355  0.0763  0.3241  0.1378
    1CHOL    R314076  18.051  20.970   4.315 -0.0435  0.0620  0.0524
    1CHOL    R414077  17.969  21.075   4.052  0.0045  0.2040  0.0975
    1CHOL    R514078  18.039  20.872   4.097 -0.2034  0.1192  0.0360
    1CHOL    C114079  18.300  20.978   3.839 -0.1498 -0.1120 -0.0061
    1CHOL    C214080  18.494  21.196   3.588 -0.1022  0.0390 -0.2127
    1CHOL   ROH14081  13.604  29.854   3.965  0.0183  0.0201 -0.1994
    1CHOL    R114082  13.657  29.741   4.219 -0.0445  0.0170 -0.1886
    1CHOL    R214083  13.469  29.594   4.358 -0.0785  0.0219 -0.2371
    1CHOL    R314084  13.666  29.406   4.362 -0.0844  0.0153 -0.1867
    1CHOL    R414085  13.525  29.372   4.617  0.0863  0.2812 -0.0454
    1CHOL    R514086  13.739  29.402   4.590  0.0740  0.2457 -0.2272
    1CHOL    C114087  13.742  29.067   4.772  0.1767  0.4260  0.1136
    1CHOL    C214088  13.382  29.088   5.061  0.0912 -0.1705  0.1463
    1CHOL   ROH14089  22.750  17.540   5.492  0.1536 -0.1387 -0.0882
    1CHOL    R114090  22.651  17.594   5.232  0.2113 -0.1631 -0.1166
    1CHOL    R214091  22.600  17.850   5.143 -0.1041 -0.1857 -0.0284
    1CHOL    R314092  22.764  17.777   4.939  0.1128  0.1306  0.0263
    1CHOL    R414093  22.576  17.968   4.819 -0.2462 -0.2629 -0.0463
    1CHOL    R514094  22.619  17.767   4.748  0.1903 -0.1842 -0.0169
    1CHOL    C114095  22.716  17.969   4.439 -0.1253 -0.0109 -0.0053
    1CHOL    C214096  22.701  18.017   4.141 -0.0811  0.2342 -0.0742
    1CHOL   ROH14097   1.055  15.882   5.097  0.3549 -0.0603  0.0731
    1CHOL    R114098   1.109  15.817   4.827  0.2640 -0.0048  0.0403
    1CHOL    R214099   1.235  15.582   4.753  0.2031 -0.0111 -0.0551
    1CHOL    R314100   1.015  15.553   4.595  0.1497  0.0663  0.0055
    1CHOL    R414101   1.213  15.371   4.480 -0.0137 -0.1525  0.0691
    1CHOL    R514102   1.103  15.526   4.374  0.0853 -0.1287  0.0032
    1CHOL    C114103   0.995  15.221   4.173 -0.1901 -0.1623  0.1983
    1CHOL    C214104   0.687  15.051   4.298 -0.0270  0.1866  0.1785
    1CHOL   ROH14105  21.706  17.598   5.559 -0.0743  0.0075 -0.0468
    1CHOL    R114106  21.592  17.458   5.341 -0.0099 -0.0731 -0.0291
    1CHOL    R214107  21.589  17.560   5.084 -0.1126 -0.0788 -0.0290
    1CHOL    R314108  21.708  17.323   5.023  0.0382 -0.0010 -0.0428
    1CHOL    R414109  21.600  17.419   4.768  0.1872  0.0625 -0.0857
    1CHOL    R514110  21.564  17.224   4.859  0.2031  0.0056 -0.1964
    1CHOL    C114111  21.717  17.115   4.528  0.5034  0.2179 -0.1318
    1CHOL    C214112  21.798  16.952   4.213 -0.0689 -0.0250 -0.0728
    1CHOL   ROH14113  22.556  12.753   6.220  0.1408  0.2089  0.1444
    1CHOL    R114114  22.429  12.832   5.980  0.2520  0.1249  0.0566
    1CHOL    R214115  22.460  12.693   5.743  0.1369 -0.1266  0.1818
    1CHOL    R314116  22.189  12.687   5.748  0.1283  0.1625  0.1619
    1CHOL    R414117  22.258  12.670   5.464  0.1315 -0.0619  0.1809
    1CHOL    R514118  22.123  12.814   5.556  0.2755  0.1288  0.0911
    1CHOL    C114119  21.884  12.652   5.306  0.1200  0.2472  0.1616
    1CHOL    C214120  21.788  12.686   5.023 -0.2385 -0.2360 -0.0904
    1CHOL   ROH14121  15.483   9.222   3.542 -0.1220  0.1786 -0.0419
    1CHOL    R114122  15.532   9.105   3.795 -0.1688 -0.0865 -0.1511
    1CHOL    R214123  15.554   9.254   4.027  0.1435 -0.2873 -0.0343
    1CHOL    R314124  15.359   9.086   4.115 -0.0574 -0.0884 -0.0942
    1CHOL    R414125  15.504   9.165   4.357  0.1490 -0.5123 -0.0937
    1CHOL    R514126  15.463   8.961   4.291 -0.1682 -0.3920 -0.2485
    1CHOL    C114127  15.292   8.955   4.632 -0.0364 -0.4567 -0.1845
    1CHOL    C214128  15.355   9.134   5.019 -0.1563 -0.1971 -0.0767
    1CHOL   ROH14129  17.890  22.515   1.968 -0.0002 -0.1809  0.0403
    1CHOL    R114130  17.873  22.678   2.198  0.0880 -0.0717 -0.0290
    1CHOL    R214131  17.835  22.575   2.452 -0.0500  0.0611  0.0098
    1CHOL    R314132  18.060  22.718   2.508  0.0598 -0.1022 -0.0093
    1CHOL    R414133  17.944  22.657   2.770 -0.0784  0.1726 -0.0095
    1CHOL    R514134  17.998  22.854   2.695  0.1218  0.0743 -0.1182
    1CHOL    C114135  18.217  22.839   3.007  0.0082  0.0842 -0.0386
    1CHOL    C214136  18.456  22.817   3.288 -0.0004 -0.1008  0.0329
    1CHOL   ROH14137  14.843   6.857   4.678 -0.0952  0.2189 -0.0972
    1CHOL    R114138  14.902   6.929   4.946 -0.2174  0.0023 -0.0081
    1CHOL    R214139  14.988   6.745   5.134  0.1495 -0.0814 -0.2363
    1CHOL    R314140  15.193   6.921   5.163 -0.1793  0.2856 -0.0482
    1CHOL    R414141  15.204   6.752   5.403  0.1357  0.0591 -0.2295
    1CHOL    R514142  15.196   6.970   5.398 -0.2782  0.0513 -0.0009
    1CHOL    C114143  15.523   6.921   5.588 -0.1810  0.4855 -0.0489
    1CHOL    C214144  15.427   6.868   5.917  0.1721 -0.1091  0.1643
    1CHOL   ROH14145  19.229  10.328   7.041 -0.2568  0.0014  0.1483
    1CHOL    R114146  19.310  10.314   6.770 -0.1617 -0.0151  0.1770
    1CHOL    R214147  19.363  10.074   6.643 -0.2068 -0.0295  0.1832
    1CHOL    R314148  19.181  10.167   6.463 -0.1053  0.0509  0.1215
    1CHOL    R414149  19.299   9.931   6.334 -0.1747 -0.0088  0.1673
    1CHOL    R514150  19.284  10.132   6.250 -0.0529 -0.0045  0.1561
    1CHOL    C114151  19.091   9.936   5.986 -0.0606  0.0788  0.1000
    1CHOL    C214152  19.004   9.894   5.626  0.0834  0.0535  0.3169
    1CHOL   ROH14153  15.073  23.008   4.763  0.0454  0.2023 -0.0957
    1CHOL    R114154  14.955  23.006   4.506  0.1768  0.2424 -0.1573
    1CHOL    R214155  15.087  22.907   4.283  0.1906  0.0214 -0.0565
    1CHOL    R314156  14.864  22.753   4.260  0.0325  0.2541 -0.1160
    1CHOL    R414157  14.996  22.734   3.998  0.2512 -0.1338  0.0179
    1CHOL    R514158  14.789  22.792   4.035  0.2799  0.1392 -0.2207
    1CHOL    C114159  14.734  22.489   3.810  0.1381 -0.0057  0.0052
    1CHOL    C214160  14.980  22.711   3.499  0.1306 -0.1463 -0.1986
    1CHOL   ROH14161  25.987   2.277   3.643 -0.0052 -0.0002  0.3252
    1CHOL    R114162  25.958   2.534   3.759  0.0406  0.0566  0.2128
    1CHOL    R214163  26.167   2.714   3.775  0.0556  0.0514  0.0754
    1CHOL    R314164  25.991   2.879   3.649  0.0346  0.0045  0.0428
    1CHOL    R414165  26.221   3.049   3.713 -0.0511  0.0842  0.1553
    1CHOL    R514166  26.013   3.088   3.765 -0.0866 -0.0065  0.0895
    1CHOL    C114167  26.088   3.400   3.558 -0.1332  0.0593  0.1713
    1CHOL    C214168  26.435   3.412   3.500  0.2654  0.1362 -0.1106
    1CHOL   ROH14169  15.132   7.376   3.939 -0.1939 -0.3572  0.1497
    1CHOL    R114170  15.103   7.602   4.108 -0.0576 -0.1739 -0.0647
    1CHOL    R214171  14.980   7.588   4.356 -0.0981  0.1453 -0.0601
    1CHOL    R314172  15.213   7.699   4.441 -0.0288  0.0636 -0.1421
    1CHOL    R414173  15.030   7.726   4.668  0.1358 -0.0874  0.0090
    1CHOL    R514174  15.144   7.886   4.574  0.0803 -0.0281  0.0452
    1CHOL    C114175  15.277   7.911   4.931  0.3370 -0.2996 -0.0277
    1CHOL    C214176  15.264   8.086   5.264  0.3336  0.4482 -0.2164
    1CHOL   ROH14177  21.932  14.877   2.974 -0.1513 -0.2330 -0.1725
    1CHOL    R114178  21.771  15.052   3.129 -0.1885 -0.4574  0.0490
    1CHOL    R214179  21.718  15.007   3.396  0.4080 -0.4378  0.1887
    1CHOL    R314180  21.815  15.259   3.425  0.0037 -0.2324 -0.1340
    1CHOL    R414181  21.692  15.197   3.684  0.6084 -0.3332  0.1387
    1CHOL    R514182  21.652  15.371   3.559  0.0463 -0.4657  0.1169
    1CHOL    C114183  21.770  15.545   3.878  0.3456 -0.0796 -0.1933
    1CHOL    C214184  21.570  15.550   4.087  0.0280 -0.2273 -0.0712
    1CHOL   ROH14185  16.509  15.603   5.586  0.1771  0.1140  0.0438
    1CHOL    R114186  16.703  15.728   5.423  0.0615  0.1523 -0.0711
    1CHOL    R214187  16.922  15.592   5.321  0.2021  0.2556  0.0432
    1CHOL    R314188  16.829  15.687   5.084  0.0862 -0.0457 -0.0331
    1CHOL    R414189  17.116  15.650   5.041  0.0525  0.0458 -0.1046
    1CHOL    R514190  17.002  15.832   5.005 -0.0265 -0.0593 -0.2662
    1CHOL    C114191  17.141  15.773   4.655 -0.1435 -0.3593 -0.2624
    1CHOL    C214192  17.428  15.826   4.437 -0.3582  0.0599  0.1229
    1CHOL   ROH14193  20.895  14.526   6.450  0.1811  0.0545  0.0254
    1CHOL    R114194  20.954  14.599   6.183 -0.1934  0.0653 -0.0599
    1CHOL    R214195  21.139  14.463   6.029 -0.0408  0.3729 -0.1493
    1CHOL    R314196  20.931  14.444   5.855 -0.1575 -0.1272  0.0258
    1CHOL    R414197  21.165  14.362   5.699 -0.0555  0.4908 -0.1878
    1CHOL    R514198  21.022  14.517   5.645 -0.5089  0.1476 -0.0451
    1CHOL    C114199  20.986  14.286   5.344 -0.1734  0.0899 -0.0459
    1CHOL    C214200  20.874  14.362   5.006 -0.0702 -0.2360 -0.2429
    1CHOL   ROH14201  24.654  24.184   5.966  0.1694  0.2671 -0.0734
    1CHOL    R114202  24.556  24.195   5.701  0.2689  0.1356 -0.1166
    1CHOL    R214203  24.385  24.395   5.614  0.0509 -0.0816 -0.1933
    1CHOL    R314204  24.575  24.428   5.422  0.0942  0.1560 -0.1132
    1CHOL    R414205  24.328  24.531   5.301 -0.0232 -0.2797 -0.2679
    1CHOL    R514206  24.461  24.380   5.217  0.2643 -0.1011 -0.1535
    1CHOL    C114207  24.472  24.641   4.939 -0.0257 -0.1721 -0.2361
    1CHOL    C214208  24.593  24.783   4.649  0.1411  0.1720  0.0535
    1CHOL   ROH14209  25.602   6.089   4.172 -0.3409  0.0081  0.0296
    1CHOL    R114210  25.775   6.129   4.393 -0.2644 -0.0471 -0.0200
    1CHOL    R214211  25.681   6.185   4.647 -0.1722  0.0140 -0.0004
    1CHOL    R314212  25.833   5.970   4.715 -0.2449 -0.0447 -0.0219
    1CHOL    R414213  25.838   6.143   4.952  0.0756  0.0852 -0.1152
    1CHOL    R514214  26.011   6.062   4.846 -0.0668 -0.0811 -0.2300
    1CHOL    C114215  26.072   5.917   5.194  0.1516  0.0715 -0.2023
    1CHOL    C214216  26.004   6.224   5.425  0.0682  0.1977  0.2092
    1CHOL   ROH14217  15.993  11.559   3.269 -0.0293 -0.0276  0.0532
    1CHOL    R114218  16.067  11.651   3.527  0.0443 -0.0684  0.0466
    1CHOL    R214219  15.893  11.789   3.691  0.1256 -0.0037  0.0748
    1CHOL    R314220  15.958  11.594   3.869  0.0690 -0.0357  0.0609
    1CHOL    R414221  15.778  11.773   4.016  0.1324  0.0232  0.0787
    1CHOL    R514222  15.977  11.709   4.078  0.1174 -0.0483  0.0663
    1CHOL    C114223  15.771  11.580   4.373  0.0832  0.0087  0.0679
    1CHOL    C214224  15.631  11.738   4.682  0.0885  0.0064 -0.1207
    1CHOL   ROH14225  18.988  20.651   5.018  0.0362  0.0360 -0.1013
    1CHOL    R114226  18.996  20.508   4.774  0.1808  0.1439 -0.1623
    1CHOL    R214227  18.780  20.363   4.680  0.3929 -0.2192 -0.1114
    1CHOL    R314228  18.816  20.515   4.457  0.0056 -0.0566 -0.0704
    1CHOL    R414229  18.714  20.259   4.357  0.5946 -0.2845 -0.1321
    1CHOL    R514230  18.896  20.361   4.293  0.3552  0.1733 -0.1278
    1CHOL    C114231  18.710  20.340   3.960  0.3484 -0.1698 -0.1056
    1CHOL    C214232  18.730  20.270   3.639 -0.0474  0.0621  0.2255
    1CHOL   ROH14233  14.533  13.288   6.467  0.0281  0.0049  0.0183
    1CHOL    R114234  14.530  13.346   6.190  0.0013 -0.0483  0.0083
    1CHOL    R214235  14.682  13.547   6.079 -0.1201  0.0216 -0.0213
    1CHOL    R314236  14.771  13.347   5.917  0.0080  0.0485  0.0128
    1CHOL    R414237  14.760  13.584   5.744 -0.3712 -0.0269 -0.0880
    1CHOL    R514238  14.666  13.391   5.706 -0.1791 -0.1577  0.0555
    1CHOL    C114239  14.888  13.418   5.397 -0.3972 -0.0298 -0.0948
    1CHOL    C214240  14.721  13.387   5.063  0.0181 -0.2141 -0.1804
    1CHOL   ROH14241  20.298   8.760   7.156 -0.2502 -0.3795  0.1339
    1CHOL    R114242  20.179   8.576   6.977 -0.0639 -0.2998 -0.0741
    1CHOL    R214243  20.025   8.656   6.761 -0.0104 -0.2095 -0.0657
    1CHOL    R314244  20.199   8.502   6.621  0.1329  0.0045 -0.1329
    1CHOL    R414245  19.967   8.530   6.445 -0.0246 -0.3354 -0.0149
    1CHOL    R514246  20.060   8.343   6.508  0.2728 -0.2093 -0.0291
    1CHOL    C114247  20.096   8.311   6.129  0.1017 -0.2080 -0.0484
    1CHOL    C214248  20.139   8.337   5.698  0.1717  0.0155 -0.0507
    1CHOL   ROH14249  28.925  10.185   5.646  0.0277  0.0340 -0.1914
    1CHOL    R114250  28.935  10.242   5.369 -0.0896  0.1356 -0.1735
    1CHOL    R214251  29.050  10.070   5.186  0.0342  0.3108 -0.2484
    1CHOL    R314252  28.808  10.091   5.063 -0.0118  0.1165 -0.1999
    1CHOL    R414253  28.965   9.914   4.889 -0.0024 -0.0366 -0.0624
    1CHOL    R514254  28.860  10.096   4.829 -0.0730 -0.1178 -0.2286
    1CHOL    C114255  28.689   9.842   4.601 -0.0672 -0.4214  0.0915
    1CHOL    C214256  28.450   9.764   4.415 -0.0484  0.0591 -0.2848
    1CHOL   ROH14257  19.463  24.526   5.120 -0.0375  0.0179  0.0278
    1CHOL    R114258  19.477  24.657   4.869 -0.1394  0.0689  0.0455
    1CHOL    R214259  19.447  24.523   4.630  0.2882  0.0106  0.0003
    1CHOL    R314260  19.255  24.711   4.586 -0.0786 -0.3731 -0.0889
    1CHOL    R414261  19.409  24.698   4.335  0.3881  0.3075  0.1605
    1CHOL    R514262  19.366  24.877   4.453 -0.2360  0.0630  0.3171
    1CHOL    C114263  19.206  24.976   4.121  0.1019  0.1202  0.1700
    1CHOL    C214264  19.175  24.652   3.816  0.0907  0.4405 -0.2783
    1CHOL   ROH14265   1.920  20.902   5.726 -0.0772  0.1313 -0.1217
    1CHOL    R114266   1.834  20.920   5.456 -0.0779  0.0026 -0.1308
    1CHOL    R214267   1.983  20.820   5.246 -0.0821 -0.1060 -0.0841
    1CHOL    R314268   1.754  20.687   5.189 -0.0871 -0.1263 -0.0167
    1CHOL    R414269   1.891  20.711   4.931 -0.1505 -0.1434 -0.0511
    1CHOL    R514270   1.687  20.771   4.975 -0.1435 -0.1525 -0.0090
    1CHOL    C114271   1.622  20.521   4.695 -0.1951 -0.1844  0.0314
    1CHOL    C214272   1.646  20.161   4.294 -0.0995  0.0198 -0.0939
    1CHOL   ROH14273   3.735  24.563   2.626  0.0695 -0.0555 -0.0879
    1CHOL    R114274   3.776  24.642   2.895 -0.0181 -0.0384 -0.0788
    1CHOL    R214275   3.568  24.686   3.070 -0.0812  0.0497 -0.1696
    1CHOL    R314276   3.703  24.508   3.225 -0.2027  0.0208 -0.0956
    1CHOL    R414277   3.487  24.606   3.397 -0.4767 -0.1934 -0.3201
    1CHOL    R514278   3.700  24.604   3.444 -0.5393 -0.1189 -0.0364
    1CHOL    C114279   3.567  24.392   3.732 -0.8210 -0.3618 -0.3383
    1CHOL    C214280   3.764  24.300   4.060  0.1816  0.4137  0.1100
    1CHOL   ROH14281  20.792  12.249   6.695  0.1770  0.1409  0.0735
    1CHOL    R114282  20.665  12.323   6.453  0.2712  0.2770  0.0623
    1CHOL    R214283  20.805  12.425   6.237  0.4330 -0.0452 -0.0036
    1CHOL    R314284  20.684  12.221   6.104  0.0519  0.1067  0.1004
    1CHOL    R414285  20.740  12.421   5.898  0.1198  0.0207  0.0546
    1CHOL    R514286  20.547  12.330   5.940  0.0441  0.2700  0.2230
    1CHOL    C114287  20.588  12.228   5.575 -0.4203  0.2018  0.1861
    1CHOL    C214288  20.574  12.267   5.170  0.0255 -0.0864  0.4223
    1CHOL   ROH14289  20.391   9.098   3.445  0.0197  0.1747 -0.1050
    1CHOL    R114290  20.359   9.217   3.700  0.0543  0.1658 -0.0976
    1CHOL    R214291  20.162   9.138   3.877  0.0920  0.1507 -0.0713
    1CHOL    R314292  20.373   9.108   4.047  0.1177  0.1617 -0.0995
    1CHOL    R414293  20.136   9.080   4.217  0.1268 -0.0374 -0.0988
    1CHOL    R514294  20.303   9.216   4.248  0.0702  0.0298 -0.0380
    1CHOL    C114295  20.317   9.018   4.574  0.1715 -0.1365 -0.1411
    1CHOL    C214296  19.935   8.901   4.769  0.3361  0.1145 -0.0743
    1CHOL   ROH14297   5.927  26.650   2.682 -0.0549 -0.0363  0.0285
    1CHOL    R114298   6.014  26.541   2.929 -0.0397 -0.1277 -0.0167
    1CHOL    R214299   5.901  26.614   3.171  0.0821 -0.0978  0.0307
    1CHOL    R314300   5.866  26.346   3.198 -0.0706 -0.0819  0.0001
    1CHOL    R414301   5.869  26.448   3.472  0.2060 -0.1374  0.0229
    1CHOL    R514302   5.993  26.288   3.392  0.0436 -0.2033 -0.1076
    1CHOL    C114303   5.817  26.099   3.673  0.1349 -0.1458 -0.0104
    1CHOL    C214304   5.536  25.846   3.751  0.3882  0.2660  0.2534
    1CHOL   ROH14305  11.645  25.106   3.402  0.4349  0.0378  0.0556
    1CHOL    R114306  11.636  24.977   3.654  0.2338 -0.0511  0.0058
    1CHOL    R214307  11.435  25.024   3.838  0.1615 -0.0076 -0.0774
    1CHOL    R314308  11.408  24.753   3.828  0.0171  0.0104 -0.1953
    1CHOL    R414309  11.265  24.834   4.071  0.1262 -0.0317 -0.1234
    1CHOL    R514310  11.423  24.684   4.057  0.0415 -0.1061 -0.2346
    1CHOL    C114311  11.141  24.469   4.198 -0.0299 -0.0286 -0.2609
    1CHOL    C214312  10.814  24.367   4.199  0.1691 -0.1035  0.3234
    1CHOL   ROH14313  20.801   6.714   7.179  0.0392  0.0570 -0.1253
    1CHOL    R114314  20.875   6.654   6.912  0.0404  0.3210 -0.1868
    1CHOL    R214315  20.771   6.439   6.773  0.4086  0.1616 -0.2273
    1CHOL    R314316  20.707   6.630   6.590 -0.0653  0.1203 -0.1175
    1CHOL    R414317  20.685   6.378   6.444  0.3963  0.1329 -0.2188
    1CHOL    R514318  20.802   6.551   6.386  0.0165  0.4089 -0.1935
    1CHOL    C114319  20.574   6.521   6.081 -0.0560  0.0775 -0.1108
    1CHOL    C214320  20.683   6.626   5.660 -0.1951  0.4544 -0.0968
    1CHOL   ROH14321  23.627   7.462   4.073  0.1309  0.1506  0.0264
    1CHOL    R114322  23.648   7.375   4.342  0.2400  0.0926 -0.0003
    1CHOL    R214323  23.847   7.464   4.512  0.1483  0.2672  0.0172
    1CHOL    R314324  23.636   7.529   4.671  0.0785 -0.0177  0.0465
    1CHOL    R414325  23.861   7.504   4.855  0.1883  0.4796 -0.0081
    1CHOL    R514326  23.670   7.402   4.871  0.3672  0.1464  0.1064
    1CHOL    C114327  23.672   7.589   5.204  0.1460  0.3356  0.0046
    1CHOL    C214328  23.554   7.807   5.643 -0.0825  0.0382 -0.1073
    1CHOL   ROH14329  10.181  21.199   5.477  0.1026 -0.0292 -0.0844
    1CHOL    R114330  10.185  21.174   5.196  0.1100  0.0538 -0.0920
    1CHOL    R214331  10.021  21.323   5.031  0.1103  0.0977 -0.0522
    1CHOL    R314332  10.255  21.391   4.912  0.1111  0.1393 -0.0270
    1CHOL    R414333  10.058  21.391   4.694  0.1691 -0.0829 -0.0836
    1CHOL    R514334  10.247  21.282   4.698  0.2211  0.0084  0.0334
    1CHOL    C114335  10.301  21.495   4.386  0.2042 -0.1491 -0.0782
    1CHOL    C214336  10.564  21.602   4.036  0.0548 -0.1124  0.0800
    1CHOL   ROH14337  24.079   6.163   4.473  0.0593 -0.0775  0.0827
    1CHOL    R114338  24.231   6.342   4.631  0.0606 -0.0600  0.0613
    1CHOL    R214339  24.120   6.562   4.756  0.0463 -0.0911  0.1019
    1CHOL    R314340  24.233   6.452   4.978  0.1178 -0.0851  0.0693
    1CHOL    R414341  24.127   6.710   5.069 -0.0215 -0.1652  0.1390
    1CHOL    R514342  24.331   6.638   5.093  0.0205 -0.0586  0.1110
    1CHOL    C114343  24.236   6.693   5.459  0.0060 -0.2026  0.1299
    1CHOL    C214344  24.179   6.730   5.846 -0.0417 -0.0605  0.3004
    1CHOL   ROH14345  24.577  12.469   3.066  0.2261  0.1426 -0.0219
    1CHOL    R114346  24.601  12.372   3.331  0.0628  0.1260 -0.0117
    1CHOL    R214347  24.761  12.494   3.520  0.0272  0.0548  0.0661
    1CHOL    R314348  24.532  12.497   3.665 -0.0401  0.1478 -0.0410
    1CHOL    R414349  24.747  12.483   3.865 -0.1451 -0.2700  0.0517
    1CHOL    R514350  24.576  12.349   3.848 -0.2790 -0.0800 -0.1625
    1CHOL    C114351  24.523  12.479   4.203 -0.3087 -0.3718 -0.0571
    1CHOL    C214352  24.489  12.260   4.366  0.0979 -0.1650  0.0204
    1CHOL   ROH14353   8.212   5.477   5.933  0.0599 -0.1546 -0.2689
    1CHOL    R114354   8.005   5.557   5.757 -0.0077 -0.0785 -0.1561
    1CHOL    R214355   8.055   5.664   5.507 -0.1038 -0.0242 -0.1533
    1CHOL    R314356   7.890   5.464   5.424 -0.1720  0.0213 -0.1280
    1CHOL    R414357   7.900   5.651   5.198  0.1810 -0.1917 -0.2927
    1CHOL    R514358   7.721   5.576   5.296  0.0299  0.0310 -0.3938
    1CHOL    C114359   7.656   5.455   4.940  0.2828 -0.2466 -0.3500
    1CHOL    C214360   7.538   5.653   4.619 -0.1079 -0.3718  0.1152
    1CHOL   ROH14361   5.461   7.988   5.899 -0.1955 -0.0031 -0.1221
    1CHOL    R114362   5.417   8.065   5.630 -0.1806  0.1046 -0.0938
    1CHOL    R214363   5.344   8.322   5.559  0.1866  0.2313 -0.0269
    1CHOL    R314364   5.561   8.304   5.397  0.1009 -0.0796 -0.1138
    1CHOL    R414365   5.343   8.391   5.221  0.1518  0.2658 -0.0201
    1CHOL    R514366   5.474   8.219   5.191 -0.1130  0.0670 -0.0888
    1CHOL    C114367   5.545   8.413   4.870  0.0511 -0.0061 -0.0977
    1CHOL    C214368   5.225   8.399   4.749 -0.2188  0.0456  0.1550
    1CHOL   ROH14369  24.571  15.324   6.187 -0.0565 -0.1565 -0.1005
    1CHOL    R114370  24.731  15.255   5.964 -0.1346 -0.2452 -0.1260
    1CHOL    R214371  24.626  15.136   5.737 -0.3150  0.1930 -0.2650
    1CHOL    R314372  24.746  15.345   5.612  0.1389  0.0853 -0.0390
    1CHOL    R414373  24.719  15.141   5.404 -0.4363  0.3676 -0.2998
    1CHOL    R514374  24.902  15.244   5.462 -0.1461 -0.1234 -0.2239
    1CHOL    C114375  24.886  15.341   5.093 -0.0807  0.3684 -0.1079
    1CHOL    C214376  24.724  15.214   4.757  0.1816 -0.1520  0.0929
    1CHOL   ROH14377  27.312   9.425   3.279 -0.1977 -0.0546 -0.1342
    1CHOL    R114378  27.418   9.358   3.533 -0.0438 -0.0267 -0.1906
    1CHOL    R214379  27.314   9.458   3.768  0.1463  0.0567 -0.1440
    1CHOL    R314380  27.297   9.195   3.835  0.1159  0.0768 -0.0680
    1CHOL    R414381  27.277   9.337   4.090  0.0129  0.1636 -0.1175
    1CHOL    R514382  27.417   9.178   4.041  0.0336  0.1434 -0.0107
    1CHOL    C114383  27.240   9.020   4.340 -0.0936  0.2446 -0.0307
    1CHOL    C214384  26.881   8.982   4.425 -0.2744 -0.1100  0.1361
    1CHOL   ROH14385  22.591  18.621   5.631  0.0011 -0.1124  0.1311
    1CHOL    R114386  22.743  18.734   5.421 -0.0126  0.0459  0.2059
    1CHOL    R214387  22.688  18.685   5.154  0.2309 -0.0974  0.1834
    1CHOL    R314388  22.681  18.956   5.139 -0.1316 -0.1058  0.1096
    1CHOL    R414389  22.696  18.867   4.860  0.1158 -0.1679  0.1350
    1CHOL    R514390  22.828  19.010   4.958 -0.1179  0.0428  0.1600
    1CHOL    C114391  22.694  19.228   4.675 -0.2914 -0.2172  0.0375
    1CHOL    C214392  22.822  19.447   4.476 -0.0233  0.0863 -0.3874
    1CHOL   ROH14393  19.038  18.881   5.388  0.2066  0.0620 -0.0929
    1CHOL    R114394  19.109  18.925   5.118  0.0638  0.0473 -0.1332
    1CHOL    R214395  19.234  18.733   4.964  0.1525  0.1045 -0.1317
    1CHOL    R314396  19.026  18.778   4.795  0.0488 -0.1029 -0.0621
    1CHOL    R414397  19.229  18.645   4.630  0.0915  0.0135 -0.1074
    1CHOL    R514398  19.130  18.835   4.587 -0.0763 -0.0733 -0.1182
    1CHOL    C114399  19.030  18.636   4.277 -0.0417 -0.2339 -0.0279
    1CHOL    C214400  18.990  18.354   3.960  0.1651 -0.5311 -0.0706
    1CHOL   ROH14401   2.801  22.130   6.000  0.0648 -0.0964  0.0183
    1CHOL    R114402   2.735  22.240   5.748  0.0097 -0.0745  0.0421
    1CHOL    R214403   2.857  22.158   5.514  0.1143  0.0984  0.0348
    1CHOL    R314404   2.601  22.116   5.433  0.1595 -0.0931 -0.0149
    1CHOL    R414405   2.760  22.110   5.186  0.2130  0.0087  0.0179
    1CHOL    R514406   2.585  22.234   5.225  0.1140 -0.1163 -0.0239
    1CHOL    C114407   2.462  22.042   4.919  0.3129 -0.2231 -0.0386
    1CHOL    C214408   2.364  21.964   4.444 -0.1253  0.2636  0.1541
    1CHOL   ROH14409  24.424   9.027   3.685 -0.0735 -0.2612  0.0342
    1CHOL    R114410  24.466   9.167   3.928 -0.0346 -0.0968 -0.0648
    1CHOL    R214411  24.336   9.099   4.163  0.0330  0.0335  0.0155
    1CHOL    R314412  24.589   9.087   4.261  0.0604  0.1354 -0.0438
    1CHOL    R414413  24.443   9.249   4.455  0.0727  0.1598 -0.0636
    1CHOL    R514414  24.628   9.304   4.355  0.0295  0.1743 -0.1272
    1CHOL    C114415  24.742   9.325   4.718  0.1217  0.3291 -0.1654
    1CHOL    C214416  24.497   9.516   4.921  0.1357  0.1163  0.2735
    1CHOL   ROH14417  26.728   8.754   6.527 -0.2202 -0.0424 -0.0311
    1CHOL    R114418  26.538   8.621   6.365 -0.1420 -0.1199 -0.0595
    1CHOL    R214419  26.508   8.674   6.096 -0.2060 -0.0449 -0.0374
    1CHOL    R314420  26.545   8.406   6.071 -0.0187 -0.0114 -0.1367
    1CHOL    R414421  26.397   8.483   5.830 -0.0594 -0.0224 -0.1160
    1CHOL    R514422  26.342   8.327   5.972  0.0403 -0.1149 -0.1772
    1CHOL    C114423  26.368   8.120   5.653  0.2014  0.0222 -0.2550
    1CHOL    C214424  26.455   8.050   5.321  0.0244 -0.3321 -0.0045
    1CHOL   ROH14425  23.270   7.042   4.059 -0.0353 -0.1072  0.0927
    1CHOL    R114426  23.205   7.204   4.282  0.0140 -0.0482  0.0647
    1CHOL    R214427  23.055   7.111   4.494 -0.0429  0.0450  0.0652
    1CHOL    R314428  23.267   7.197   4.640 -0.0185 -0.0239  0.0710
    1CHOL    R414429  23.057   7.147   4.838  0.0359 -0.1869  0.0911
    1CHOL    R514430  23.170   7.332   4.813  0.0042 -0.1529  0.1868
    1CHOL    C114431  23.257   7.250   5.175  0.1045 -0.3867  0.1117
    1CHOL    C214432  23.142   7.431   5.473 -0.1635  0.0496  0.0718
    1CHOL   ROH14433  25.349  18.512   5.854  0.1841  0.0723 -0.2680
    1CHOL    R114434  25.287  18.348   5.631  0.3137 -0.1808 -0.1226
    1CHOL    R214435  25.254  18.450   5.376 -0.1651 -0.3753 -0.1484
    1CHOL    R314436  25.443  18.265   5.313  0.1837 -0.0020 -0.2344
    1CHOL    R414437  25.377  18.393   5.058 -0.1849 -0.1206 -0.2033
    1CHOL    R514438  25.375  18.180   5.100  0.2600 -0.1345 -0.2062
    1CHOL    C114439  25.626  18.187   4.814  0.1308  0.3783 -0.3161
    1CHOL    C214440  25.904  18.284   4.616 -0.3431  0.0672  0.0646
    1CHOL   ROH14441   9.827  17.298   5.347 -0.0376 -0.0180 -0.2012
    1CHOL    R114442   9.690  17.447   5.149 -0.0575 -0.0153 -0.1837
    1CHOL    R214443   9.821  17.571   4.940 -0.0724  0.0546 -0.1436
    1CHOL    R314444   9.645  17.430   4.789 -0.0249  0.0448 -0.1927
    1CHOL    R414445   9.804  17.582   4.595 -0.1857  0.3139 -0.1337
    1CHOL    R514446   9.586  17.579   4.610 -0.1863  0.1504 -0.0614
    1CHOL    C114447   9.629  17.455   4.252 -0.2072  0.4557 -0.1741
    1CHOL    C214448   9.325  17.619   4.151 -0.2658 -0.1713  0.0229
    1CHOL   ROH14449  27.158  14.032   3.490  0.0509  0.0190 -0.0288
    1CHOL    R114450  27.117  14.091   3.763 -0.0152  0.0780 -0.0481
    1CHOL    R214451  26.936  13.952   3.920 -0.0953  0.1323 -0.0613
    1CHOL    R314452  27.152  13.915   4.080 -0.1340  0.1210 -0.0167
    1CHOL    R414453  26.924  13.827   4.242 -0.1124 -0.0352 -0.1282
    1CHOL    R514454  27.075  13.974   4.299 -0.1923 -0.0284 -0.0127
    1CHOL    C114455  27.120  13.720   4.580 -0.1588 -0.1433 -0.1253
    1CHOL    C214456  27.049  13.398   4.751  0.1752  0.2518 -0.1680
    1CHOL   ROH14457   6.945  14.350   3.113 -0.0976  0.1525 -0.0804
    1CHOL    R114458   6.724  14.243   3.254 -0.0610  0.1379 -0.0339
    1CHOL    R214459   6.690  13.972   3.295 -0.0277  0.1367 -0.0156
    1CHOL    R314460   6.672  14.046   3.556  0.0144  0.1461 -0.0153
    1CHOL    R414461   6.550  13.779   3.545  0.0972  0.1055  0.0306
    1CHOL    R514462   6.460  13.960   3.628  0.0595  0.0818  0.0429
    1CHOL    C114463   6.453  13.736   3.936  0.2094  0.0963  0.0578
    1CHOL    C214464   6.391  13.410   4.172  0.2073 -0.1867 -0.0073
    1CHOL   ROH14465  17.375  29.066   3.997 -0.0195 -0.0330  0.0991
    1CHOL    R114466  17.292  28.970   4.250  0.0710 -0.0996  0.1036
    1CHOL    R214467  17.387  28.733   4.357  0.2216 -0.0531  0.0724
    1CHOL    R314468  17.452  28.892   4.568  0.1599 -0.0329  0.0765
    1CHOL    R414469  17.494  28.619   4.665 -0.0463 -0.0370  0.1749
    1CHOL    R514470  17.372  28.773   4.759 -0.0344  0.0523  0.0538
    1CHOL    C114471  17.619  28.702   5.042 -0.2605 -0.0087  0.2384
    1CHOL    C214472  17.738  28.388   5.280  0.1883 -0.1601 -0.0382
    1CHOL   ROH14473  20.124  17.981   5.327  0.2090  0.0885  0.2368
    1CHOL    R114474  20.178  17.809   5.109  0.1759  0.0010  0.2958
    1CHOL    R214475  20.203  17.901   4.849 -0.1234 -0.1329  0.2096
    1CHOL    R314476  20.442  17.772   4.861  0.0027  0.0865  0.0982
    1CHOL    R414477  20.347  17.728   4.587 -0.1380 -0.1068  0.1852
    1CHOL    R514478  20.410  17.575   4.729  0.0960  0.0066  0.2006
    1CHOL    C114479  20.656  17.507   4.445 -0.0280  0.1144  0.0664
    1CHOL    C214480  20.642  17.226   4.332  0.1446  0.4149 -0.0089
    1CHOL   ROH14481  19.748  13.657   6.407 -0.0442  0.1485 -0.2109
    1CHOL    R114482  19.876  13.483   6.224 -0.0495  0.0850 -0.1553
    1CHOL    R214483  19.748  13.267   6.109 -0.0736  0.0828 -0.1295
    1CHOL    R314484  19.830  13.383   5.877 -0.0180  0.0208 -0.1404
    1CHOL    R414485  19.625  13.191   5.795 -0.1250  0.1318 -0.1211
    1CHOL    R514486  19.828  13.205   5.717 -0.1221  0.0136 -0.1287
    1CHOL    C114487  19.631  13.255   5.395 -0.1026  0.1021 -0.1265
    1CHOL    C214488  19.473  13.431   5.179  0.0436  0.0793  0.2640
    1CHOL   ROH14489   6.404   6.814   5.818 -0.2754 -0.0969  0.0696
    1CHOL    R114490   6.232   6.833   5.594 -0.2524  0.0054  0.0588
    1CHOL    R214491   6.314   6.767   5.338 -0.2188  0.1449  0.0311
    1CHOL    R314492   6.097   6.604   5.345 -0.2048  0.1226 -0.0759
    1CHOL    R414493   6.144   6.654   5.060  0.0738 -0.0619 -0.0668
    1CHOL    R514494   5.957   6.684   5.168 -0.0398 -0.0126 -0.2717
    1CHOL    C114495   5.841   6.434   4.904  0.2573 -0.2033 -0.2243
    1CHOL    C214496   5.545   6.488   4.708  0.1304 -0.1228 -0.1528
    1CHOL   ROH14497  18.735   5.162   7.373 -0.1286 -0.2037 -0.2189
    1CHOL    R114498  18.926   5.108   7.172 -0.1715 -0.1486 -0.2755
    1CHOL    R214499  18.856   5.039   6.913 -0.2284  0.1385 -0.3429
    1CHOL    R314500  19.017   5.248   6.848 -0.0883  0.0932 -0.1486
    1CHOL    R414501  19.042   5.062   6.623 -0.0242  0.1868 -0.2095
    1CHOL    R514502  19.205   5.147   6.741 -0.0639  0.0601 -0.0683
    1CHOL    C114503  19.302   5.271   6.394  0.2262  0.1724  0.0505
    1CHOL    C214504  19.615   5.222   6.211  0.0004 -0.0973  0.0004
    1CHOL   ROH14505  19.772   6.389   4.118  0.1729 -0.1752 -0.0168
    1CHOL    R114506  19.679   6.447   4.379  0.0582 -0.1454 -0.0637
    1CHOL    R214507  19.639   6.251   4.569  0.1546 -0.1045 -0.0001
    1CHOL    R314508  19.803   6.408   4.719 -0.0029  0.0773 -0.0138
    1CHOL    R414509  19.669   6.235   4.913  0.1800 -0.0541 -0.0001
    1CHOL    R514510  19.678   6.453   4.918 -0.0464 -0.0410 -0.0133
    1CHOL    C114511  19.841   6.373   5.254  0.0469  0.1460 -0.0130
    1CHOL    C214512  19.718   6.350   5.616 -0.1030 -0.1325 -0.0636
    1CHOL   ROH14513  12.840   2.971   5.926 -0.0254  0.0959 -0.0466
    1CHOL    R114514  12.967   3.108   5.714 -0.0399 -0.0979 -0.1825
    1CHOL    R214515  13.197   3.257   5.750 -0.1230  0.0602 -0.3018
    1CHOL    R314516  13.293   3.099   5.550  0.0069 -0.1379 -0.0886
    1CHOL    R414517  13.453   3.344   5.535 -0.2058 -0.0120 -0.4318
    1CHOL    R514518  13.341   3.252   5.372 -0.1332 -0.3380 -0.3052
    1CHOL    C114519  13.692   3.247   5.222 -0.1319 -0.2400 -0.3074
    1CHOL    C214520  13.817   3.367   4.854 -0.0231 -0.0795 -0.0523
    1CHOL   ROH14521   5.199  23.333   5.113  0.0342 -0.2969 -0.1098
    1CHOL    R114522   5.423  23.177   5.039  0.2056 -0.1445  0.0769
    1CHOL    R214523   5.566  23.222   4.808  0.0947 -0.3212 -0.0283
    1CHOL    R314524   5.777  23.234   4.979  0.1272  0.1915 -0.0899
    1CHOL    R414525   5.897  23.183   4.715  0.0688 -0.6775  0.0175
    1CHOL    R514526   5.929  23.067   4.898  0.0809 -0.1132  0.4038
    1CHOL    C114527   6.288  23.172   4.822  0.0843 -0.4037 -0.0137
    1CHOL    C214528   6.660  23.354   4.767 -0.2315 -0.0708  0.0571
    1CHOL   ROH14529  19.023   4.804   4.548  0.1330  0.3427  0.0317
    1CHOL    R114530  18.896   4.934   4.765  0.0705  0.2737  0.0381
    1CHOL    R214531  18.758   4.796   4.961 -0.1092  0.2187 -0.1169
    1CHOL    R314532  18.925   4.931   5.128 -0.1338  0.0408  0.0531
    1CHOL    R414533  18.738   4.792   5.306 -0.0802 -0.2342 -0.1150
    1CHOL    R514534  18.783   5.005   5.306 -0.1337 -0.2259  0.1629
    1CHOL    C114535  18.882   4.917   5.664 -0.0865 -0.6651  0.0457
    1CHOL    C214536  19.077   5.008   6.032 -0.0438  0.0394  0.2998
    1CHOL   ROH14537  17.954  11.396   3.272  0.2557 -0.0538 -0.0003
    1CHOL    R114538  18.107  11.488   3.492  0.1243  0.0451  0.0528
    1CHOL    R214539  18.024  11.694   3.656 -0.0568  0.0074  0.0188
    1CHOL    R314540  18.065  11.510   3.853 -0.0232  0.0338  0.0352
    1CHOL    R414541  17.988  11.756   3.994 -0.1946 -0.0135  0.0080
    1CHOL    R514542  18.167  11.635   4.030 -0.1469  0.0838  0.0662
    1CHOL    C114543  18.006  11.620   4.375 -0.2432 -0.0010  0.0171
    1CHOL    C214544  17.964  11.976   4.460  0.5590 -0.1186  0.1574
    1CHOL   ROH14545  16.209  13.184   4.572  0.0226 -0.2057 -0.1964
    1CHOL    R114546  16.415  13.190   4.766  0.0491  0.0225 -0.2300
    1CHOL    R214547  16.464  12.979   4.938  0.0098  0.2610  0.0776
    1CHOL    R314548  16.716  12.998   4.838  0.0039  0.0399  0.0157
    1CHOL    R414549  16.747  12.851   5.089 -0.0649  0.0062  0.0074
    1CHOL    R514550  16.854  13.031   5.030  0.0812 -0.0851 -0.0158
    1CHOL    C114551  17.148  12.794   5.083 -0.1142 -0.3497 -0.0916
    1CHOL    C214552  17.485  12.646   4.974  0.2553 -0.1818  0.0706
    1CHOL   ROH14553  28.981  28.914   2.714 -0.0248 -0.0002  0.0601
    1CHOL    R114554  28.937  28.839   2.984 -0.0664 -0.0031  0.0538
    1CHOL    R214555  29.127  28.873   3.181 -0.0392 -0.1375  0.0602
    1CHOL    R314556  28.925  29.007   3.306  0.0399 -0.0283  0.0694
    1CHOL    R414557  29.111  28.936   3.521 -0.0348 -0.1990  0.0706
    1CHOL    R514558  28.898  28.892   3.515 -0.0605 -0.0518  0.0399
    1CHOL    C114559  28.913  29.097   3.836  0.0420 -0.1327  0.0852
    1CHOL    C214560  29.174  29.217   4.184 -0.1656  0.0549  0.0927
    1CHOL   ROH14561  11.011  22.608   4.966  0.2545 -0.3698 -0.1752
    1CHOL    R114562  10.972  22.822   4.785  0.0610 -0.2497  0.0053
    1CHOL    R214563  11.088  22.829   4.535  0.0792  0.0802  0.0191
    1CHOL    R314564  10.832  22.864   4.452  0.0496 -0.0992  0.0281
    1CHOL    R414565  10.995  22.965   4.231 -0.0249  0.2177  0.1108
    1CHOL    R514566  10.836  23.072   4.333 -0.1352 -0.0049  0.1800
    1CHOL    C114567  10.701  23.078   3.976 -0.1133  0.1294  0.1728
    1CHOL    C214568  10.828  23.092   3.587  0.1710 -0.0023 -0.2474
    1CHOL   ROH14569  16.104  22.003   1.856 -0.0591 -0.2151  0.0628
    1CHOL    R114570  15.922  22.128   2.032 -0.0107 -0.1495  0.0670
    1CHOL    R214571  15.871  22.032   2.286 -0.0746 -0.1583  0.0507
    1CHOL    R314572  15.937  22.284   2.361  0.0430 -0.1998  0.0889
    1CHOL    R414573  15.723  22.205   2.546 -0.0464 -0.1051  0.0309
    1CHOL    R514574  15.728  22.385   2.422  0.0796 -0.0946  0.0471
    1CHOL    C114575  15.699  22.544   2.768  0.0804 -0.1130  0.0553
    1CHOL    C214576  15.443  22.834   2.922 -0.0596 -0.3121  0.0769
    1CHOL   ROH14577  19.018  17.949   5.433  0.1727  0.0803  0.0246
    1CHOL    R114578  19.065  17.771   5.218 -0.0971  0.1285 -0.0819
    1CHOL    R214579  19.021  17.841   4.955 -0.1185  0.3059 -0.0486
    1CHOL    R314580  19.279  17.762   4.924 -0.2111  0.0481 -0.1579
    1CHOL    R414581  19.176  17.790   4.650 -0.1774  0.4888 -0.1081
    1CHOL    R514582  19.274  17.614   4.736 -0.3763  0.2836 -0.3292
    1CHOL    C114583  19.509  17.685   4.444 -0.2982  0.3532 -0.2452
    1CHOL    C214584  19.355  17.675   4.197  0.0180  0.0921 -0.3207
    1CHOL   ROH14585  25.103  13.813   6.556 -0.0954 -0.0382  0.0806
    1CHOL    R114586  25.203  13.842   6.293 -0.1338  0.1240  0.0828
    1CHOL    R214587  25.117  13.684   6.083  0.0120  0.0876  0.0487
    1CHOL    R314588  25.066  13.924   5.966 -0.2304  0.0688  0.1092
    1CHOL    R414589  25.066  13.730   5.745 -0.0625  0.1219  0.0643
    1CHOL    R514590  25.184  13.913   5.757 -0.2379  0.2338  0.0965
    1CHOL    C114591  24.988  13.982   5.437 -0.3333  0.1244  0.1301
    1CHOL    C214592  25.266  14.074   5.114 -0.1820 -0.1026  0.1311
    1CHOL   ROH14593  23.362  19.273   2.964 -0.1814  0.0725  0.2692
    1CHOL    R114594  23.180  19.205   3.169 -0.3152  0.2378  0.2072
    1CHOL    R214595  23.261  19.107   3.414 -0.4983 -0.1858  0.1090
    1CHOL    R314596  23.113  19.314   3.510 -0.0695  0.0349  0.3229
    1CHOL    R414597  23.245  19.201   3.746 -0.2911 -0.4869  0.2082
    1CHOL    R514598  23.031  19.236   3.721 -0.2277 -0.0139  0.2437
    1CHOL    C114599  23.097  19.450   4.030  0.2321 -0.4552  0.4668
    1CHOL    C214600  23.165  19.839   4.319  0.0748  0.0727  0.1680
    1CHOL   ROH14601  13.053  19.581   2.489  0.1655 -0.2625 -0.1006
    1CHOL    R114602  13.065  19.795   2.673 -0.0377 -0.2368 -0.1143
    1CHOL    R214603  12.912  19.802   2.903 -0.0639 -0.3552 -0.1250
    1CHOL    R314604  13.153  19.837   3.024 -0.1019 -0.1358 -0.1106
    1CHOL    R414605  12.957  19.871   3.239 -0.1503 -0.0858 -0.1671
    1CHOL    R514606  13.114  20.011   3.184 -0.2194 -0.0401 -0.2428
    1CHOL    C114607  13.209  19.945   3.547 -0.2362  0.2770 -0.1781
    1CHOL    C214608  13.476  19.913   3.773 -0.1248 -0.2490  0.0550
    1CHOL   ROH14609  26.852   2.270   4.333 -0.0394 -0.2002  0.1582
    1CHOL    R114610  26.679   2.090   4.467 -0.1471 -0.1143  0.1369
    1CHOL    R214611  26.660   2.079   4.742 -0.0616 -0.2193  0.1426
    1CHOL    R314612  26.395   2.115   4.692 -0.0496  0.0302  0.2443
    1CHOL    R414613  26.407   2.014   4.968 -0.0536 -0.1800  0.1626
    1CHOL    R514614  26.289   1.931   4.804 -0.1672  0.0354  0.1372
    1CHOL    C114615  26.011   2.010   5.053 -0.0377  0.0770  0.2697
    1CHOL    C214616  25.700   2.021   5.281  0.2544  0.2000  0.2628
    1CHOL   ROH14617  21.349  11.576   6.563  0.0125  0.0476 -0.0479
    1CHOL    R114618  21.315  11.665   6.297  0.0431  0.0180 -0.0615
    1CHOL    R214619  21.490  11.596   6.094  0.0431 -0.0380 -0.0415
    1CHOL    R314620  21.263  11.511   5.971  0.0362 -0.0159 -0.0445
    1CHOL    R414621  21.457  11.540   5.754 -0.0006  0.1091 -0.0629
    1CHOL    R514622  21.259  11.629   5.763 -0.0126  0.0773  0.0081
    1CHOL    C114623  21.225  11.426   5.442 -0.0325  0.2154 -0.0782
    1CHOL    C214624  21.167  11.058   5.245 -0.0308  0.2732  0.2435
    1CHOL   ROH14625  21.269   2.158   4.356  0.0688 -0.0072 -0.0392
    1CHOL    R114626  21.367   2.228   4.611  0.0587 -0.0015 -0.0364
    1CHOL    R214627  21.370   2.051   4.824 -0.1006  0.0510  0.0140
    1CHOL    R314628  21.634   2.116   4.832 -0.0602 -0.1150  0.0498
    1CHOL    R414629  21.567   2.043   5.108 -0.1814  0.0865  0.0713
    1CHOL    R514630  21.661   2.228   5.042 -0.0443 -0.0131 -0.0081
    1CHOL    C114631  21.929   2.098   5.281 -0.1906 -0.0486  0.1382
    1CHOL    C214632  22.217   1.954   5.244  0.0315 -0.0268 -0.0506
    1CHOL   ROH14633  11.393  14.043   3.078  0.0367  0.0459  0.0697
    1CHOL    R114634  11.401  14.167   3.333 -0.0367  0.2917 -0.0427
    1CHOL    R214635  11.212  14.351   3.414 -0.3385  0.0272 -0.0992
    1CHOL    R314636  11.186  14.182   3.626  0.1005  0.1509  0.0651
    1CHOL    R414637  11.069  14.436   3.717 -0.1031  0.0700  0.0017
    1CHOL    R514638  11.225  14.321   3.818  0.1467  0.3370 -0.0818
    1CHOL    C114639  10.960  14.326   4.092  0.4462  0.2110  0.2146
    1CHOL    C214640  10.953  14.406   4.465  0.0387 -0.1012  0.0266
    1CHOL   ROH14641  14.805   3.127   7.448 -0.0891 -0.2450 -0.1431
    1CHOL    R114642  14.836   3.233   7.187  0.0165 -0.1346 -0.0855
    1CHOL    R214643  14.897   3.499   7.141 -0.0212 -0.1063  0.0521
    1CHOL    R314644  15.102   3.393   6.997  0.0751  0.0026  0.1053
    1CHOL    R414645  15.023   3.633   6.848 -0.1373 -0.1231 -0.0066
    1CHOL    R514646  15.040   3.431   6.769  0.0391 -0.1521  0.0840
    1CHOL    C114647  15.288   3.611   6.542 -0.1145 -0.0306  0.0092
    1CHOL    C214648  15.484   3.454   6.341 -0.1031  0.0575 -0.1910
    1CHOL   ROH14649  13.157  10.517   6.403  0.0804  0.2409 -0.3458
    1CHOL    R114650  13.147  10.289   6.236  0.0021  0.2056 -0.2941
    1CHOL    R214651  12.998  10.282   6.003  0.0897  0.2440 -0.3531
    1CHOL    R314652  13.235  10.209   5.892  0.0899  0.0661 -0.2396
    1CHOL    R414653  13.055  10.245   5.664  0.1808  0.0263 -0.3158
    1CHOL    R514654  13.175  10.069   5.708  0.0812 -0.0072 -0.1799
    1CHOL    C114655  13.312  10.156   5.363  0.2339 -0.2674 -0.1876
    1CHOL    C214656  13.443  10.089   5.004  0.2763 -0.1283  0.2414
    1CHOL   ROH14657   5.266   9.376   3.791 -0.1921  0.0959  0.0357
    1CHOL    R114658   5.439   9.550   3.933 -0.2022 -0.0029  0.1719
    1CHOL    R214659   5.346   9.741   4.109 -0.2280  0.0173  0.1398
    1CHOL    R314660   5.516   9.619   4.282 -0.3965 -0.0881  0.2328
    1CHOL    R414661   5.513   9.901   4.366 -0.2433 -0.0798  0.2096
    1CHOL    R514662   5.689   9.781   4.319 -0.3022 -0.2050  0.3056
    1CHOL    C114663   5.770   9.879   4.678 -0.4104 -0.2353  0.3376
    1CHOL    C214664   5.862   9.972   5.033  0.0649 -0.1253 -0.0776
    1CHOL   ROH14665   4.717  16.640   3.640  0.0121  0.0852  0.1429
    1CHOL    R114666   4.618  16.833   3.823 -0.0085  0.1369  0.0790
    1CHOL    R214667   4.778  17.034   3.927 -0.0019  0.1270  0.0953
    1CHOL    R314668   4.582  17.195   3.830  0.0602  0.1454  0.0031
    1CHOL    R414669   4.724  17.361   4.024 -0.0336  0.1209  0.0947
    1CHOL    R514670   4.510  17.323   4.019 -0.0333  0.1335 -0.0242
    1CHOL    C114671   4.509  17.703   3.989  0.0061  0.1346  0.0077
    1CHOL    C214672   4.284  17.990   4.079  0.1978  0.1489  0.1163
    1CHOL   ROH14673  18.100  14.340   6.098 -0.1435  0.1003 -0.0090
    1CHOL    R114674  18.217  14.222   5.869 -0.0938  0.1316  0.0002
    1CHOL    R214675  18.122  13.988   5.758  0.0448  0.0471  0.0574
    1CHOL    R314676  18.111  14.138   5.531 -0.0804 -0.0037  0.0290
    1CHOL    R414677  18.052  13.865   5.443  0.1243 -0.0692  0.0844
    1CHOL    R514678  18.205  13.997   5.362  0.0208  0.0343  0.0524
    1CHOL    C114679  18.000  13.934   5.046  0.0530 -0.1845  0.0735
    1CHOL    C214680  17.796  14.107   4.730 -0.0036 -0.0495 -0.1826
    1CHOL   ROH14681  12.138  13.370   5.774 -0.0906  0.0809  0.0188
    1CHOL    R114682  12.070  13.369   5.499  0.0175  0.0288 -0.0085
    1CHOL    R214683  12.217  13.505   5.309  0.1092 -0.0287  0.0180
    1CHOL    R314684  12.226  13.261   5.189  0.1289 -0.0571  0.0773
    1CHOL    R414685  12.361  13.441   5.001  0.0463 -0.0828 -0.0004
    1CHOL    R514686  12.195  13.308   4.956  0.0639 -0.1259  0.0739
    1CHOL    C114687  12.454  13.175   4.709  0.0281 -0.1409  0.0446
    1CHOL    C214688  12.717  12.822   4.544  0.1706  0.0346  0.0543
    1CHOL   ROH14689  27.098  11.418   3.042  0.0380  0.1492 -0.0692
    1CHOL    R114690  27.011  11.287   3.277  0.1063  0.0319 -0.1082
    1CHOL    R214691  27.157  11.088   3.400  0.2599  0.1418 -0.1126
    1CHOL    R314692  27.131  11.248   3.618  0.0733  0.0831 -0.0900
    1CHOL    R414693  27.204  10.986   3.727  0.1818  0.0991 -0.1147
    1CHOL    R514694  27.032  11.107   3.784  0.0843 -0.0118 -0.1616
    1CHOL    C114695  27.206  11.076   4.122 -0.0388  0.0192 -0.0947
    1CHOL    C214696  27.457  10.762   4.306 -0.0242 -0.0360 -0.2885
    1CHOL   ROH14697  27.296  13.158   6.467  0.0698 -0.1106  0.1542
    1CHOL    R114698  27.443  13.167   6.225  0.0995 -0.0957  0.1728
    1CHOL    R214699  27.652  12.995   6.170  0.0486 -0.1512  0.1514
    1CHOL    R314700  27.507  12.942   5.946  0.0553 -0.0448  0.1211
    1CHOL    R414701  27.787  12.911   5.864  0.0535 -0.1302  0.1476
    1CHOL    R514702  27.637  13.037   5.768  0.1121 -0.0515  0.1586
    1CHOL    C114703  27.730  12.812   5.475  0.0626 -0.0181  0.1169
    1CHOL    C214704  27.646  12.462   5.192  0.0904  0.1332  0.0762
    1CHOL   ROH14705  17.004   1.168   4.529 -0.0171 -0.0725  0.0426
    1CHOL    R114706  16.973   1.070   4.793  0.0240  0.0270  0.0849
    1CHOL    R214707  16.907   0.807   4.847 -0.0643  0.0705  0.1917
    1CHOL    R314708  17.131   0.817   5.002 -0.0130  0.0326  0.1202
    1CHOL    R414709  16.955   0.625   5.137  0.0149  0.0280  0.1521
    1CHOL    R514710  17.049   0.800   5.226  0.0581  0.0094  0.1451
    1CHOL    C114711  17.193   0.527   5.450  0.1090 -0.0323  0.0619
    1CHOL    C214712  17.289   0.545   5.890 -0.1193 -0.2390  0.1067
    1CHOL   ROH14713  18.169  15.521   2.791  0.1788 -0.1383 -0.0066
    1CHOL    R114714  18.367  15.507   2.993  0.1556 -0.0073  0.0266
    1CHOL    R214715  18.576  15.687   3.009  0.0733  0.0909  0.0214
    1CHOL    R314716  18.485  15.721   3.263  0.0189  0.1026  0.0001
    1CHOL    R414717  18.773  15.770   3.281 -0.0033  0.2127  0.0403
    1CHOL    R514718  18.658  15.630   3.401  0.0293  0.1921  0.0456
    1CHOL    C114719  18.802  15.850   3.677 -0.0990  0.2946  0.0313
    1CHOL    C214720  19.050  15.765   3.949  0.1253  0.4721 -0.0828
    1CHOL   ROH14721   6.232  27.431   5.127  0.0130 -0.2178 -0.1577
    1CHOL    R114722   6.168  27.489   4.858  0.0460 -0.0857 -0.1377
    1CHOL    R214723   6.205  27.308   4.653 -0.0280 -0.0241 -0.2075
    1CHOL    R314724   5.942  27.357   4.605 -0.0054  0.1098 -0.1954
    1CHOL    R414725   6.040  27.233   4.358 -0.0984 -0.0094 -0.1720
    1CHOL    R514726   5.935  27.423   4.375  0.0092  0.0536 -0.2115
    1CHOL    C114727   5.697  27.236   4.142 -0.1181  0.1250 -0.1399
    1CHOL    C214728   5.442  27.496   4.107 -0.1348  0.0100  0.2410
    1CHOL   ROH14729  22.865   9.548   3.410 -0.0201  0.0723 -0.0342
    1CHOL    R114730  22.811   9.448   3.669 -0.0705 -0.0224 -0.0819
    1CHOL    R214731  22.937   9.545   3.894 -0.1295 -0.0939 -0.0242
    1CHOL    R314732  22.682   9.581   3.982 -0.1507 -0.1446 -0.0609
    1CHOL    R414733  22.840   9.539   4.226 -0.1236  0.1450 -0.0161
    1CHOL    R514734  22.661   9.429   4.167 -0.0724 -0.0003  0.0738
    1CHOL    C114735  22.544   9.570   4.502 -0.1400  0.2364 -0.0458
    1CHOL    C214736  22.287   9.541   4.951  0.2017  0.1416 -0.0565
    1CHOL   ROH14737  29.044  19.007   5.831 -0.0797  0.1921 -0.1416
    1CHOL    R114738  29.091  19.079   5.561 -0.0879  0.0880 -0.1714
    1CHOL    R214739  29.275  18.948   5.402  0.0758  0.1739 -0.0572
    1CHOL    R314740  29.062  18.918   5.236  0.1390 -0.1232 -0.0903
    1CHOL    R414741  29.288  18.977   5.058  0.1272 -0.0328 -0.0737
    1CHOL    R514742  29.097  19.082   5.065  0.0298 -0.1991 -0.1860
    1CHOL    C114743  29.095  18.965   4.701  0.2165 -0.4321 -0.1144
    1CHOL    C214744  29.225  19.242   4.477 -0.1516 -0.2910 -0.1090
    1CHOL   ROH14745  18.771   1.123   4.763 -0.0712  0.1677  0.1019
    1CHOL    R114746  18.693   0.919   4.943 -0.1885  0.1641  0.0480
    1CHOL    R214747  18.852   0.837   5.153 -0.1235 -0.1541 -0.1177
    1CHOL    R314748  18.630   0.892   5.300  0.0546  0.0481  0.0837
    1CHOL    R414749  18.781   0.702   5.463 -0.0548 -0.2346 -0.1370
    1CHOL    R514750  18.573   0.683   5.402 -0.1293  0.0612  0.0110
    1CHOL    C114751  18.532   0.674   5.782  0.1521 -0.0916  0.0408
    1CHOL    C214752  18.623   0.593   6.138  0.0709 -0.0032  0.1765
    1CHOL   ROH14753  26.296  23.237   3.820  0.0196  0.2593  0.0006
    1CHOL    R114754  26.300  23.209   4.101  0.0154  0.1901 -0.0059
    1CHOL    R214755  26.414  22.992   4.228 -0.0496  0.1229 -0.0596
    1CHOL    R314756  26.553  23.184   4.362  0.0124  0.0479 -0.0162
    1CHOL    R414757  26.448  23.008   4.571  0.1319 -0.0834 -0.0657
    1CHOL    R514758  26.423  23.224   4.559  0.1151 -0.0766  0.0780
    1CHOL    C114759  26.597  23.197   4.897  0.2958 -0.2738 -0.0285
    1CHOL    C214760  26.627  23.040   5.208 -0.3846  0.0728 -0.3147
    1CHOL   ROH14761  13.804   9.920   6.815 -0.3279  0.0299 -0.1204
    1CHOL    R114762  13.891   9.905   6.546 -0.0363  0.0577 -0.0316
    1CHOL    R214763  14.156   9.871   6.478  0.0244 -0.1163  0.2541
    1CHOL    R314764  14.060   9.659   6.337  0.0182  0.0020  0.0792
    1CHOL    R414765  14.298   9.744   6.189  0.1078  0.0031  0.2424
    1CHOL    R514766  14.098   9.718   6.108  0.1421  0.1210  0.1337
    1CHOL    C114767  14.290   9.472   5.889  0.1504  0.1835  0.0715
    1CHOL    C214768  14.464   9.698   5.652 -0.2387  0.1338 -0.3092
    1CHOL   ROH14769  23.330  21.419   3.345  0.1055  0.3018  0.1056
    1CHOL    R114770  23.168  21.410   3.577  0.0686  0.1913  0.0772
    1CHOL    R214771  23.241  21.269   3.804  0.0171  0.0517  0.0148
    1CHOL    R314772  23.200  21.509   3.926  0.0316 -0.0087  0.1374
    1CHOL    R414773  23.230  21.318   4.146  0.1066 -0.0995  0.0396
    1CHOL    R514774  23.065  21.457   4.116  0.0912 -0.1013  0.1504
    1CHOL    C114775  23.184  21.572   4.460  0.1725 -0.2440  0.1692
    1CHOL    C214776  23.554  21.526   4.627  0.0165 -0.3186 -0.0248
    1CHOL   ROH14777   6.507   2.810   6.540 -0.1074 -0.0667 -0.0885
    1CHOL    R114778   6.569   2.660   6.308 -0.2361  0.0568 -0.2037
    1CHOL    R214779   6.581   2.384   6.309  0.1104  0.0723 -0.2691
    1CHOL    R314780   6.403   2.407   6.105 -0.2036 -0.1115 -0.0263
    1CHOL    R414781   6.536   2.151   6.058  0.1804  0.1256 -0.3323
    1CHOL    R514782   6.516   2.315   5.916 -0.2829  0.1802 -0.2271
    1CHOL    C114783   6.343   2.038   5.720 -0.0735 -0.0159 -0.1412
    1CHOL    C214784   6.001   1.915   5.616  0.3118 -0.0947  0.0955
    1CHOL   ROH14785   2.490  16.774   3.281 -0.0033 -0.0835 -0.0950
    1CHOL    R114786   2.542  16.705   3.550  0.2489  0.1012 -0.0901
    1CHOL    R214787   2.620  16.890   3.740 -0.2052  0.3629 -0.1342
    1CHOL    R314788   2.407  16.791   3.877  0.0741 -0.1968 -0.0807
    1CHOL    R414789   2.573  16.922   4.081 -0.2665  0.3668 -0.1458
    1CHOL    R514790   2.500  16.717   4.085  0.3135  0.1459 -0.0585
    1CHOL    C114791   2.345  16.848   4.408 -0.0399 -0.1563 -0.1022
    1CHOL    C214792   2.120  16.760   4.644 -0.1944  0.2557 -0.0414
    1CHOL   ROH14793  27.435  19.881   3.356 -0.2377 -0.1724  0.0673
    1CHOL    R114794  27.271  19.919   3.584 -0.1249 -0.1928  0.1541
    1CHOL    R214795  27.372  19.922   3.841  0.0280 -0.0578  0.1009
    1CHOL    R314796  27.245  20.161   3.853 -0.0945 -0.1233  0.0920
    1CHOL    R414797  27.390  20.141   4.107  0.0550  0.0507  0.0091
    1CHOL    R514798  27.177  20.181   4.082  0.0255 -0.0750  0.1181
    1CHOL    C114799  27.280  20.494   4.274 -0.0444  0.0522 -0.0528
    1CHOL    C214800  27.100  20.922   4.231  0.0184  0.0519  0.1268
    1CHOL   ROH14801  17.500  28.902   5.650  0.0721 -0.0605 -0.1304
    1CHOL    R114802  17.686  28.840   5.446  0.0298  0.0023 -0.1882
    1CHOL    R214803  17.831  29.034   5.313  0.1223  0.0315 -0.0418
    1CHOL    R314804  18.044  28.884   5.393  0.0510 -0.1419 -0.1712
    1CHOL    R414805  18.129  29.006   5.140  0.2240  0.2975  0.0840
    1CHOL    R514806  18.132  28.794   5.189  0.1603  0.2019 -0.2853
    1CHOL    C114807  18.502  28.849   5.113  0.2163  0.2899  0.0358
    1CHOL    C214808  18.921  28.895   5.091  0.0520 -0.1301 -0.3371
    1CHOL   ROH14809  18.175   5.916   3.876  0.2578 -0.2325  0.0393
    1CHOL    R114810  18.150   5.842   4.148  0.0811 -0.1978  0.0322
    1CHOL    R214811  18.095   6.026   4.348 -0.0133 -0.1698 -0.0249
    1CHOL    R314812  17.890   5.857   4.403 -0.0720 -0.1329 -0.1241
    1CHOL    R414813  17.864   6.072   4.600 -0.1740 -0.0790 -0.1851
    1CHOL    R514814  17.874   5.858   4.642 -0.2271 -0.0758 -0.1301
    1CHOL    C114815  17.536   5.940   4.799 -0.3226  0.0085 -0.3715
    1CHOL    C214816  17.323   5.750   4.973  0.2187 -0.3075  0.0570
    1CHOL   ROH14817  15.928   8.257   3.780  0.2608 -0.0561 -0.1179
    1CHOL    R114818  16.023   8.230   4.045  0.1665 -0.0205 -0.0799
    1CHOL    R214819  16.199   8.410   4.159  0.0544  0.0487 -0.0076
    1CHOL    R314820  16.008   8.426   4.352 -0.0305 -0.0254 -0.0857
    1CHOL    R414821  16.261   8.461   4.495 -0.1086  0.0965  0.0153
    1CHOL    R514822  16.105   8.317   4.541 -0.0606  0.0310 -0.0401
    1CHOL    C114823  16.117   8.507   4.872 -0.2834  0.0549 -0.0447
    1CHOL    C214824  16.209   8.411   5.195  0.1141  0.1720  0.0215
    1CHOL   ROH14825  22.394  11.268   6.504 -0.0401  0.0707 -0.0083
    1CHOL    R114826  22.306  11.200   6.244  0.0634  0.0009 -0.0252
    1CHOL    R214827  22.349  11.362   6.025 -0.0372  0.0430 -0.0129
    1CHOL    R314828  22.461  11.137   5.921  0.1739  0.1399 -0.0007
    1CHOL    R414829  22.298  11.248   5.703  0.0054 -0.0601  0.0161
    1CHOL    R514830  22.289  11.045   5.781  0.2343 -0.0609  0.0523
    1CHOL    C114831  22.374  10.971   5.417  0.2284 -0.0290  0.0445
    1CHOL    C214832  22.049  10.990   5.191 -0.0976  0.0114  0.6363
    1CHOL   ROH14833   6.943  18.916   5.773 -0.1372  0.1062  0.0421
    1CHOL    R114834   6.757  18.961   5.564 -0.2433 -0.0599  0.0973
    1CHOL    R214835   6.835  18.995   5.301 -0.3283  0.2373  0.1016
    1CHOL    R314836   6.658  18.793   5.257 -0.0070 -0.0301  0.0043
    1CHOL    R414837   6.650  18.951   5.011 -0.2035  0.0212  0.0534
    1CHOL    R514838   6.480  18.894   5.134 -0.1418 -0.2797 -0.0036
    1CHOL    C114839   6.378  18.735   4.803  0.1708 -0.3561 -0.0660
    1CHOL    C214840   6.109  18.830   4.546  0.2234  0.1307  0.0894
    1CHOL   ROH14841  28.869   5.762   6.341 -0.0201  0.0655 -0.0371
    1CHOL    R114842  28.680   5.703   6.138 -0.0534  0.0827 -0.0117
    1CHOL    R214843  28.612   5.884   5.941  0.0589  0.0313 -0.0995
    1CHOL    R314844  28.680   5.679   5.775 -0.0609 -0.0904 -0.0013
    1CHOL    R414845  28.576   5.888   5.597 -0.0096 -0.1447 -0.0957
    1CHOL    R514846  28.510   5.681   5.606 -0.0952 -0.1130  0.0333
    1CHOL    C114847  28.620   5.700   5.241 -0.1618 -0.3615 -0.0012
    1CHOL    C214848  28.399   5.803   4.925 -0.3016  0.0370 -0.0040
    1CHOL   ROH14849  20.140   2.776   4.195  0.2405 -0.0314  0.0790
    1CHOL    R114850  20.248   2.906   4.422  0.0891 -0.0366  0.1548
    1CHOL    R214851  20.089   3.004   4.627 -0.0395 -0.1538  0.1131
    1CHOL    R314852  20.250   2.850   4.782 -0.0358 -0.1192  0.1436
    1CHOL    R414853  20.145   3.053   4.964  0.0863  0.0130  0.0695
    1CHOL    R514854  20.354   3.004   4.932  0.0611 -0.0687  0.0260
    1CHOL    C114855  20.329   2.936   5.307  0.1631  0.1426  0.0728
    1CHOL    C214856  20.604   3.055   5.381 -0.0795  0.2274 -0.3018
    1CHOL   ROH14857  19.462   2.000   4.580 -0.1336  0.1316  0.1947
    1CHOL    R114858  19.547   1.962   4.847 -0.0925  0.1385  0.1826
    1CHOL    R214859  19.390   1.840   5.038 -0.0140  0.0292  0.1784
    1CHOL    R314860  19.607   1.679   5.068  0.0725  0.1376  0.1385
    1CHOL    R414861  19.427   1.602   5.286  0.1215  0.0037  0.1340
    1CHOL    R514862  19.636   1.662   5.305  0.0924  0.1102  0.1345
    1CHOL    C114863  19.653   1.313   5.459  0.2815  0.0905  0.0707
    1CHOL    C214864  19.906   1.231   5.801  0.1400 -0.0547  0.3876
    1CHOL   ROH14865  21.527   4.623   4.504  0.1326  0.1994 -0.0592
    1CHOL    R114866  21.386   4.703   4.736  0.0531  0.1521 -0.0906
    1CHOL    R214867  21.499   4.696   4.988 -0.0695 -0.0027 -0.0385
    1CHOL    R314868  21.424   4.958   4.994  0.0302  0.0249  0.0401
    1CHOL    R414869  21.434   4.877   5.275  0.0995 -0.0360  0.0220
    1CHOL    R514870  21.266   4.970   5.173  0.0972  0.0482  0.0989
    1CHOL    C114871  21.325   5.228   5.448  0.2912 -0.0295  0.1311
    1CHOL    C214872  21.279   5.310   5.764  0.2895 -0.0349 -0.1310
    1CHOL   ROH14873   3.513  14.204   5.652  0.0216 -0.2470 -0.0989
    1CHOL    R114874   3.431  14.107   5.399  0.0167 -0.0286 -0.1832
    1CHOL    R214875   3.168  14.045   5.342  0.0407 -0.1382 -0.1761
    1CHOL    R314876   3.207  14.216   5.134 -0.1272  0.1138 -0.0058
    1CHOL    R414877   2.996  14.033   5.042  0.3021 -0.2461 -0.3252
    1CHOL    R514878   3.183  14.079   4.939  0.3064  0.2141 -0.1413
    1CHOL    C114879   2.932  14.187   4.672  0.2968 -0.0726 -0.2522
    1CHOL    C214880   2.822  13.879   4.491  0.0276 -0.0736 -0.0577
    1CHOL   ROH14881  17.617  11.922   6.564 -0.0466 -0.1178  0.1250
    1CHOL    R114882  17.463  11.974   6.333  0.0266 -0.0822  0.0838
    1CHOL    R214883  17.559  12.122   6.120  0.1163 -0.1002  0.1100
    1CHOL    R314884  17.488  11.902   5.977  0.1073 -0.0843  0.0901
    1CHOL    R414885  17.519  12.113   5.777  0.1953 -0.0900  0.1005
    1CHOL    R514886  17.345  11.987   5.805  0.1649 -0.0557  0.0572
    1CHOL    C114887  17.430  11.902   5.443  0.2332 -0.0690  0.0763
    1CHOL    C214888  17.294  11.878   5.105  0.2898 -0.3580  0.1266
    1CHOL   ROH14889  22.899  13.677   6.415  0.0099 -0.2361  0.1029
    1CHOL    R114890  22.990  13.510   6.205 -0.0864 -0.2092  0.0401
    1CHOL    R214891  22.822  13.335   6.071 -0.1765 -0.0924  0.0042
    1CHOL    R314892  22.915  13.465   5.851 -0.1440 -0.0661  0.0327
    1CHOL    R414893  22.894  13.185   5.768 -0.2978 -0.0329 -0.0550
    1CHOL    R514894  23.070  13.312   5.752 -0.2344 -0.1146 -0.0394
    1CHOL    C114895  23.022  13.220   5.385 -0.3380  0.0263 -0.0627
    1CHOL    C214896  23.064  13.254   5.040  0.5382 -0.2958  0.0620
    1CHOL   ROH14897  24.700  11.527   3.184 -0.0287  0.0743  0.0267
    1CHOL    R114898  24.619  11.536   3.455 -0.0157  0.1471  0.0286
    1CHOL    R214899  24.663  11.327   3.630 -0.1883  0.1111  0.0321
    1CHOL    R314900  24.782  11.520   3.780 -0.0209  0.0144  0.0247
    1CHOL    R414901  24.778  11.283   3.953 -0.1259 -0.0047 -0.0057
    1CHOL    R514902  24.701  11.481   4.002  0.0166  0.0387  0.0417
    1CHOL    C114903  24.957  11.438   4.281  0.0677 -0.1629 -0.0348
    1CHOL    C214904  24.978  11.475   4.643 -0.0572  0.0821 -0.0460
    1CHOL   ROH14905  20.796  11.641   3.257  0.1042  0.3094  0.0605
    1CHOL    R114906  20.706  11.550   3.510 -0.0054  0.2260 -0.0083
    1CHOL    R214907  20.880  11.490   3.717 -0.0939  0.1018  0.0252
    1CHOL    R314908  20.725  11.666   3.854 -0.1013  0.0783  0.0490
    1CHOL    R414909  20.888  11.535   4.059  0.0333  0.1712  0.0142
    1CHOL    R514910  20.671  11.552   4.058  0.0210  0.0957  0.0966
    1CHOL    C114911  20.748  11.727   4.388  0.1004  0.1894  0.0301
    1CHOL    C214912  20.737  11.601   4.647 -0.1941 -0.1697 -0.0659
    1CHOL   ROH14913  27.759  17.791   5.856 -0.0277  0.1073  0.0529
    1CHOL    R114914  27.516  17.699   5.742  0.0467 -0.0405  0.0108
    1CHOL    R214915  27.396  17.825   5.528 -0.0261 -0.0754  0.0321
    1CHOL    R314916  27.406  17.577   5.417  0.1612 -0.0425 -0.0280
    1CHOL    R414917  27.291  17.748   5.208 -0.1235 -0.1045  0.0708
    1CHOL    R514918  27.206  17.563   5.286  0.1016 -0.2098  0.0770
    1CHOL    C114919  27.239  17.470   4.918 -0.0043 -0.0905  0.0368
    1CHOL    C214920  27.090  17.475   4.589 -0.0332  0.2416  0.2152
    1CHOL   ROH14921  16.361   9.641   3.489 -0.0671 -0.1645  0.0794
    1CHOL    R114922  16.406   9.818   3.705 -0.3189 -0.1282  0.1075
    1CHOL    R214923  16.259   9.808   3.939 -0.1560 -0.5390  0.2097
    1CHOL    R314924  16.504   9.788   4.054 -0.0210 -0.0373  0.0330
    1CHOL    R414925  16.323   9.856   4.275  0.0415 -0.2181  0.1293
    1CHOL    R514926  16.506   9.961   4.220 -0.1846  0.0690 -0.0803
    1CHOL    C114927  16.591   9.865   4.579  0.2831  0.4397 -0.0834
    1CHOL    C214928  16.599   9.890   4.891 -0.1298  0.2119 -0.3436
    1CHOL   ROH14929  29.731   9.485   3.918  0.0198  0.0003 -0.0857
    1CHOL    R114930   0.149   9.533   3.887  0.0087  0.2367  0.1456
    1CHOL    R214931   0.313   9.601   4.100 -0.1161 -0.2020  0.4017
    1CHOL    R314932   0.458   9.388   4.015  0.0315  0.0789 -0.0864
    1CHOL    R414933   0.637   9.532   4.197 -0.0870 -0.2370  0.2798
    1CHOL    R514934   0.681   9.473   3.992 -0.0189  0.2719  0.1405
    1CHOL    C114935   0.962   9.291   4.174  0.0686  0.0063 -0.2494
    1CHOL    C214936   1.052   9.035   4.203 -0.0096 -0.1908 -0.1915
    1CHOL   ROH14937  27.108  24.191   3.767  0.0279 -0.0434 -0.0157
    1CHOL    R114938  27.063  23.934   3.877  0.0463 -0.0837 -0.0999
    1CHOL    R214939  27.124  23.871   4.139  0.1827 -0.2072 -0.1565
    1CHOL    R314940  26.863  23.794   4.147  0.1730 -0.1632 -0.0481
    1CHOL    R414941  26.968  23.735   4.415  0.2530 -0.1296 -0.0784
    1CHOL    R514942  26.865  23.596   4.282  0.1842 -0.1359 -0.0130
    1CHOL    C114943  26.632  23.583   4.584  0.2849 -0.0431  0.0688
    1CHOL    C214944  27.004  23.392   4.719  0.0277  0.0909 -0.2027
    1CHOL   ROH14945  24.195   9.884   3.293 -0.0246 -0.1307  0.0288
    1CHOL    R114946  24.047   9.981   3.514 -0.0131 -0.0219 -0.0101
    1CHOL    R214947  23.854   9.829   3.642 -0.1126  0.0932 -0.0175
    1CHOL    R314948  24.001   9.888   3.863 -0.1171  0.0525 -0.0041
    1CHOL    R414949  23.727   9.864   3.961 -0.1131  0.0288 -0.0109
    1CHOL    R514950  23.861  10.033   3.991 -0.1183  0.0235  0.0238
    1CHOL    C114951  23.790   9.940   4.355 -0.1175 -0.0470  0.0056
    1CHOL    C214952  23.571   9.846   4.698 -0.3190 -0.1308 -0.0000
    1CHOL   ROH14953  18.924  16.345   5.728  0.0424 -0.0182  0.0074
    1CHOL    R114954  18.797  16.358   5.475  0.0648 -0.0830 -0.0075
    1CHOL    R214955  18.895  16.511   5.267 -0.0081 -0.0042  0.0141
    1CHOL    R314956  18.884  16.276   5.131  0.1613 -0.0038 -0.0019
    1CHOL    R414957  18.964  16.475   4.930 -0.1290  0.0935 -0.0217
    1CHOL    R514958  18.796  16.336   4.916  0.0013 -0.0714  0.0448
    1CHOL    C114959  18.993  16.232   4.606 -0.0405  0.1508 -0.0576
    1CHOL    C214960  19.061  15.846   4.422  0.0574 -0.0482 -0.0380
    1CHOL   ROH14961  15.580   8.930   6.955  0.1142 -0.0143 -0.0524
    1CHOL    R114962  15.679   8.836   6.707  0.0603 -0.1190 -0.0335
    1CHOL    R214963  15.568   8.622   6.574 -0.0946 -0.0452 -0.0133
    1CHOL    R314964  15.551   8.798   6.368  0.0583 -0.0599 -0.0413
    1CHOL    R414965  15.478   8.539   6.251 -0.2557 -0.0128  0.0213
    1CHOL    R514966  15.632   8.675   6.178 -0.1129 -0.1915 -0.0369
    1CHOL    C114967  15.409   8.656   5.869 -0.2058 -0.0077  0.0153
    1CHOL    C214968  15.514   8.386   5.611 -0.0917  0.0079 -0.0305
    1CHOL   ROH14969  20.293   7.305   3.725  0.2558 -0.0207 -0.0620
    1CHOL    R114970  20.384   7.397   3.977  0.1140  0.0145 -0.0235
    1CHOL    R214971  20.432   7.664   4.030 -0.0776  0.0379  0.0173
    1CHOL    R314972  20.262   7.620   4.237 -0.1153 -0.0894 -0.0383
    1CHOL    R414973  20.505   7.724   4.362 -0.2786  0.2506  0.0269
    1CHOL    R514974  20.402   7.540   4.413 -0.0839  0.1394  0.0500
    1CHOL    C114975  20.389   7.718   4.750 -0.4313  0.2549 -0.0197
    1CHOL    C214976  20.591   7.864   5.046  0.0341 -0.0661 -0.0079
    1CHOL   ROH14977  23.269   6.027   4.618 -0.2479 -0.1424 -0.0138
    1CHOL    R114978  23.203   6.190   4.839 -0.0384 -0.1065  0.0255
    1CHOL    R214979  22.976   6.149   4.991 -0.0688  0.1171  0.0493
    1CHOL    R314980  23.154   6.143   5.197 -0.0434 -0.1197  0.0222
    1CHOL    R414981  22.898   6.214   5.322  0.0332  0.0174  0.0931
    1CHOL    R514982  23.086   6.323   5.339  0.1187 -0.1372  0.1205
    1CHOL    C114983  23.019   6.246   5.707  0.1162 -0.2631  0.0932
    1CHOL    C214984  23.062   6.224   6.057  0.2397 -0.3730  0.2333
    1CHOL   ROH14985  29.857  10.615   5.480 -0.1921  0.0248 -0.0774
    1CHOL    R114986  29.838  10.853   5.329 -0.0511  0.1384  0.0806
    1CHOL    R214987   0.195  11.020   5.286  0.1315 -0.1354 -0.0877
    1CHOL    R314988   0.128  10.987   5.025 -0.2393  0.1002 -0.0302
    1CHOL    R414989   0.307  11.219   5.027  0.4138 -0.3711 -0.1523
    1CHOL    R514990   0.107  11.210   4.940  0.2791  0.1926  0.0513
    1CHOL    C114991   0.310  11.304   4.631  0.2301 -0.2872 -0.1360
    1CHOL    C214992   0.178  11.638   4.651 -0.0987  0.0138 -0.2589
    1CHOL   ROH14993  16.463   7.440   7.235 -0.1197  0.1772 -0.0462
    1CHOL    R114994  16.331   7.512   6.995 -0.2237  0.1257 -0.0060
    1CHOL    R214995  16.460   7.518   6.750 -0.2187  0.4765 -0.0032
    1CHOL    R314996  16.258   7.353   6.676  0.0347  0.2049 -0.1059
    1CHOL    R414997  16.366   7.455   6.424  0.1376  0.1955 -0.0570
    1CHOL    R514998  16.158   7.461   6.487  0.0736 -0.0100 -0.2494
    1CHOL    C114999  16.122   7.262   6.164  0.5832 -0.2231 -0.1846
    1CHOL    C215000  15.940   7.122   5.961  0.1591  0.4280  0.3091
    1CHOL   ROH15001   3.338  12.181   5.607 -0.0328  0.0405  0.0296
    1CHOL    R115002   3.284  12.369   5.403 -0.0661 -0.0293 -0.0254
    1CHOL    R215003   3.275  12.299   5.135 -0.0676 -0.1116 -0.0016
    1CHOL    R315004   3.029  12.414   5.147 -0.0825 -0.1393 -0.0304
    1CHOL    R415005   3.131  12.483   4.881  0.0392  0.0619  0.0608
    1CHOL    R515006   3.055  12.622   5.030 -0.0412 -0.0504  0.1302
    1CHOL    C115007   2.816  12.698   4.743  0.0874  0.1369  0.0702
    1CHOL    C215008   2.756  12.800   4.417  0.3072 -0.1144 -0.1153
    1CHOL   ROH15009  22.406  12.786   3.062 -0.2541 -0.2351 -0.0784
    1CHOL    R115010  22.275  12.793   3.312 -0.1689 -0.0720 -0.0379
    1CHOL    R215011  22.318  12.604   3.509 -0.2665 -0.0681 -0.0153
    1CHOL    R315012  22.373  12.822   3.662 -0.0338 -0.0819 -0.0739
    1CHOL    R415013  22.302  12.612   3.854 -0.3969  0.0757 -0.0226
    1CHOL    R515014  22.213  12.811   3.840 -0.1266  0.1960 -0.1316
    1CHOL    C115015  22.345  12.821   4.198 -0.2545  0.1466 -0.0819
    1CHOL    C215016  22.102  12.688   4.518  0.0248  0.0746  0.1633
    1CHOL   ROH15017   9.770  25.182   5.234  0.1798  0.0184 -0.0597
    1CHOL    R115018   9.626  25.329   5.039  0.1332  0.1009  0.0362
    1CHOL    R215019   9.726  25.377   4.786  0.0233  0.1076 -0.0057
    1CHOL    R315020   9.490  25.267   4.707 -0.0556  0.2033  0.0928
    1CHOL    R415021   9.617  25.356   4.458 -0.0589  0.0292  0.0262
    1CHOL    R515022   9.416  25.406   4.527 -0.0177  0.1691  0.0500
    1CHOL    C115023   9.333  25.240   4.194 -0.1810  0.0734  0.1373
    1CHOL    C215024   9.426  25.332   3.796 -0.0489 -0.1133 -0.0669
    1CHOL   ROH15025  17.000   9.623   6.932  0.1564 -0.1096 -0.0409
    1CHOL    R115026  16.961   9.493   6.684  0.0298 -0.1651  0.0091
    1CHOL    R215027  16.727   9.516   6.539  0.1071  0.1216 -0.0592
    1CHOL    R315028  16.896   9.593   6.340  0.2757 -0.2254 -0.0595
    1CHOL    R415029  16.661   9.485   6.201 -0.1241  0.5350 -0.0608
    1CHOL    R515030  16.869   9.425   6.171 -0.2811 -0.0565 -0.1689
    1CHOL    C115031  16.781   9.538   5.818 -0.1007  0.4502 -0.0620
    1CHOL    C215032  16.401   9.498   5.627  0.2159 -0.0134 -0.0390
    1CHOL   ROH15033   4.320   2.732   5.853  0.0125 -0.0101  0.0179
    1CHOL    R115034   4.200   2.648   5.611  0.1062 -0.1147  0.0056
    1CHOL    R215035   4.042   2.814   5.457 -0.1897 -0.3039  0.0863
    1CHOL    R315036   4.217   2.746   5.260 -0.0999  0.0436  0.0398
    1CHOL    R415037   3.963   2.796   5.122 -0.2213 -0.4012  0.1002
    1CHOL    R515038   4.085   2.616   5.108  0.1081 -0.1766  0.0484
    1CHOL    C115039   4.080   2.720   4.741 -0.1553 -0.1316  0.0646
    1CHOL    C215040   3.751   2.872   4.529  0.0061  0.0987 -0.1835
    1CHOL   ROH15041  14.985   3.842   4.993  0.2125 -0.3442  0.2830
    1CHOL    R115042  14.874   3.991   5.206  0.0856 -0.1404  0.0795
    1CHOL    R215043  14.733   3.874   5.413 -0.1011  0.0623  0.0745
    1CHOL    R315044  14.913   4.006   5.568 -0.1840  0.1443  0.1011
    1CHOL    R415045  14.677   3.974   5.739 -0.1029 -0.1847  0.1516
    1CHOL    R515046  14.781   4.160   5.694 -0.2960 -0.0577  0.2328
    1CHOL    C115047  14.813   4.156   6.074 -0.1816 -0.2516  0.2216
    1CHOL    C215048  14.697   4.453   6.336 -0.1842 -0.0163  0.0038
    1CHOL   ROH15049  19.025   6.314   7.289  0.0626  0.0493 -0.1332
    1CHOL    R115050  19.124   6.340   7.025 -0.0203  0.1846 -0.1528
    1CHOL    R215051  19.128   6.130   6.846  0.2433  0.1811 -0.1508
    1CHOL    R315052  18.992   6.304   6.689 -0.0348 -0.0096 -0.1267
    1CHOL    R415053  19.177   6.169   6.506  0.0875  0.2146 -0.1693
    1CHOL    R515054  19.155   6.384   6.533 -0.1857  0.1902 -0.1844
    1CHOL    C115055  19.077   6.355   6.161 -0.2640  0.0550 -0.1574
    1CHOL    C215056  19.212   6.385   5.869  0.3050  0.1901 -0.0286
    1CHOL   ROH15057  21.426  16.886   2.608  0.2017 -0.2303  0.1821
    1CHOL    R115058  21.465  16.906   2.888  0.0526 -0.1837  0.2005
    1CHOL    R215059  21.650  17.078   3.000 -0.0269 -0.1458  0.2716
    1CHOL    R315060  21.435  17.166   3.141 -0.1115 -0.1493  0.1473
    1CHOL    R415061  21.667  17.253   3.298 -0.1999 -0.1092  0.2614
    1CHOL    R515062  21.498  17.136   3.370 -0.2290 -0.1173  0.1856
    1CHOL    C115063  21.475  17.437   3.604 -0.3800 -0.0910  0.1386
    1CHOL    C215064  21.742  17.674   3.845  0.2690  0.0242 -0.2688
    1CHOL   ROH15065  25.380   8.970   3.396 -0.0211 -0.1664  0.0875
    1CHOL    R115066  25.542   9.072   3.605 -0.0206 -0.1565  0.0842
    1CHOL    R215067  25.437   9.180   3.836 -0.0289  0.0888 -0.0220
    1CHOL    R315068  25.598   8.998   3.957 -0.2267  0.0305  0.1558
    1CHOL    R415069  25.562   9.210   4.156  0.0001  0.2473 -0.0485
    1CHOL    R515070  25.752   9.130   4.084 -0.0888 -0.0222  0.0336
    1CHOL    C115071  25.787   9.056   4.456 -0.1688  0.2849  0.1030
    1CHOL    C215072  25.652   9.225   4.707 -0.0694  0.0307  0.2144
    1CHOL   ROH15073  19.601  10.932   3.357  0.0400 -0.0859 -0.0797
    1CHOL    R115074  19.551  11.118   3.565 -0.0512 -0.0085 -0.1697
    1CHOL    R215075  19.360  11.075   3.760 -0.0827  0.0289 -0.1938
    1CHOL    R315076  19.569  11.118   3.928 -0.1314  0.1528 -0.1647
    1CHOL    R415077  19.332  11.184   4.087 -0.1935  0.0790 -0.2195
    1CHOL    R515078  19.505  11.311   4.054 -0.2418  0.1503 -0.2129
    1CHOL    C115079  19.513  11.288   4.435 -0.3036  0.2245 -0.2070
    1CHOL    C215080  19.351  11.334   4.670 -0.0689 -0.1006  0.1755
    1CHOL   ROH15081  17.142  18.600   4.965  0.2756 -0.0374 -0.1213
    1CHOL    R115082  17.135  18.541   4.688  0.1825  0.0162 -0.1313
    1CHOL    R215083  16.904  18.467   4.557  0.1638 -0.0997 -0.0394
    1CHOL    R315084  16.968  18.674   4.393 -0.0386 -0.0231 -0.0245
    1CHOL    R415085  16.810  18.492   4.226  0.2096 -0.2028 -0.0605
    1CHOL    R515086  17.008  18.571   4.181  0.1282  0.0263 -0.0157
    1CHOL    C115087  16.815  18.701   3.879  0.0461 -0.1912 -0.0587
    1CHOL    C215088  16.399  18.752   3.751  0.2823 -0.2544  0.3441
    1CHOL   ROH15089  23.737   9.693   6.619  0.0220 -0.1783 -0.0008
    1CHOL    R115090  23.886   9.656   6.381  0.0308  0.0590 -0.0355
    1CHOL    R215091  23.795   9.501   6.171  0.2476 -0.1336  0.0077
    1CHOL    R315092  23.842   9.727   6.027 -0.1925 -0.0596 -0.0338
    1CHOL    R415093  23.805   9.517   5.826  0.4760 -0.2445  0.0074
    1CHOL    R515094  23.974   9.653   5.842  0.1421  0.1870  0.0951
    1CHOL    C115095  23.854   9.738   5.490  0.1957 -0.2395 -0.0317
    1CHOL    C215096  23.895   9.765   5.100 -0.0257  0.0379 -0.0531
    1CHOL   ROH15097  16.616  15.090   5.701 -0.0975  0.0924 -0.0999
    1CHOL    R115098  16.644  15.204   5.443  0.0736 -0.0017 -0.1220
    1CHOL    R215099  16.863  15.156   5.283  0.0690 -0.2380 -0.0419
    1CHOL    R315100  16.674  15.082   5.102  0.0587 -0.1152 -0.0869
    1CHOL    R415101  16.876  15.226   4.945  0.2153 -0.2382 -0.0386
    1CHOL    R515102  16.662  15.267   4.950  0.2272 -0.0921 -0.0897
    1CHOL    C115103  16.707  15.197   4.578  0.2911 -0.1229 -0.0789
    1CHOL    C215104  16.565  15.311   4.243  0.1517 -0.2190 -0.0253
    1CHOL   ROH15105  15.133  11.867   6.525  0.1389  0.1788  0.0033
    1CHOL    R115106  15.168  12.017   6.287 -0.1565 -0.0226 -0.1731
    1CHOL    R215107  15.417  12.097   6.196 -0.3119  0.4591 -0.1952
    1CHOL    R315108  15.338  11.971   5.968  0.0394 -0.0164 -0.0718
    1CHOL    R415109  15.546  12.157   5.881 -0.1976  0.2003 -0.2009
    1CHOL    R515110  15.345  12.141   5.801 -0.1278 -0.2462 -0.3220
    1CHOL    C115111  15.546  12.074   5.484  0.1988 -0.3970 -0.0884
    1CHOL    C215112  15.478  12.007   5.049 -0.2996  0.0677  0.1389
    1CHOL   ROH15113  19.149  12.680   6.576  0.0137 -0.1463  0.0078
    1CHOL    R115114  19.334  12.600   6.377  0.0007 -0.2247  0.0272
    1CHOL    R215115  19.391  12.334   6.325 -0.0476 -0.2449  0.0874
    1CHOL    R315116  19.324  12.403   6.071 -0.0304 -0.2919  0.0700
    1CHOL    R415117  19.516  12.184   6.041  0.0665 -0.2256  0.1271
    1CHOL    R515118  19.528  12.381   5.948  0.0058 -0.2245  0.1111
    1CHOL    C115119  19.526  12.161   5.636  0.1491 -0.2585  0.1338
    1CHOL    C215120  19.768  12.117   5.395 -0.4795 -0.1803  0.0764
    1CHOL   ROH15121  25.292  10.440   6.216  0.1258 -0.1963 -0.0460
    1CHOL    R115122  25.360  10.416   5.942  0.0999 -0.2011 -0.0522
    1CHOL    R215123  25.172  10.371   5.745  0.0700 -0.1114 -0.0451
    1CHOL    R315124  25.283  10.593   5.634  0.1504 -0.1456 -0.0331
    1CHOL    R415125  25.153  10.454   5.410  0.0187 -0.0384 -0.0241
    1CHOL    R515126  25.361  10.519   5.420  0.0541 -0.1445 -0.0689
    1CHOL    C115127  25.246  10.710   5.111  0.0641 -0.0281 -0.0006
    1CHOL    C215128  24.918  10.654   4.926 -0.1205 -0.0713  0.0477
    1CHOL   ROH15129  19.899   2.663   6.165  0.1596 -0.0947  0.1132
    1CHOL    R115130  19.822   2.934   6.191  0.0021 -0.1252 -0.0162
    1CHOL    R215131  20.003   3.135   6.248 -0.1504 -0.0302  0.1421
    1CHOL    R315132  19.898   3.248   6.024  0.0335 -0.1198  0.0077
    1CHOL    R415133  20.075   3.453   6.134 -0.2406  0.0158  0.2117
    1CHOL    R515134  19.865   3.477   6.083 -0.2018 -0.1377 -0.0413
    1CHOL    C115135  20.019   3.744   5.858 -0.1208 -0.0415  0.1260
    1CHOL    C215136  19.836   4.166   5.813  0.2676  0.3667  0.1437
    1CHOL   ROH15137  27.895  16.683   3.615  0.0500  0.3335 -0.0310
    1CHOL    R115138  27.969  16.636   3.884  0.1063  0.2368 -0.0636
    1CHOL    R215139  28.010  16.841   4.065 -0.1339  0.1633  0.0735
    1CHOL    R315140  27.828  16.703   4.213  0.0274 -0.1530 -0.0125
    1CHOL    R415141  27.935  16.906   4.396 -0.4150  0.0565  0.0343
    1CHOL    R515142  27.926  16.691   4.431 -0.0542  0.0334  0.0391
    1CHOL    C115143  27.720  16.815   4.728 -0.4273 -0.3027 -0.0693
    1CHOL    C215144  27.955  16.975   4.933  0.3906  0.3079 -0.4837
    1CHOL   ROH15145   1.533  23.213   3.055  0.0825 -0.1284 -0.1285
    1CHOL    R115146   1.644  23.286   3.305 -0.0353  0.1052 -0.1419
    1CHOL    R215147   1.846  23.142   3.426 -0.2412  0.0857  0.1933
    1CHOL    R315148   1.971  23.384   3.431 -0.0401 -0.0096 -0.0384
    1CHOL    R415149   2.093  23.233   3.651 -0.4566  0.2290  0.3764
    1CHOL    R515150   2.002  23.430   3.664 -0.3094  0.3383 -0.0638
    1CHOL    C115151   2.354  23.512   3.785 -0.3933  0.2229  0.2656
    1CHOL    C215152   2.618  23.611   3.863  0.2977  0.0360  0.0508
    1CHOL   ROH15153  23.630  12.461   6.493  0.0045 -0.1104  0.0658
    1CHOL    R115154  23.658  12.571   6.234  0.1036 -0.0850  0.0847
    1CHOL    R215155  23.836  12.472   6.048 -0.0378 -0.2689  0.0291
    1CHOL    R315156  23.615  12.456   5.891 -0.0897  0.0361  0.0697
    1CHOL    R415157  23.836  12.493   5.703 -0.1035 -0.1660  0.0369
    1CHOL    R515158  23.655  12.613   5.716  0.0451  0.0362  0.1103
    1CHOL    C115159  23.627  12.491   5.355 -0.1902  0.1800  0.0796
    1CHOL    C215160  23.811  12.408   5.046  0.0610  0.0040  0.0529
    1CHOL   ROH15161  19.137  21.038   2.114  0.1593  0.1809  0.0651
    1CHOL    R115162  19.061  21.131   2.370  0.0990  0.0162  0.1081
    1CHOL    R215163  18.888  21.344   2.405  0.1712  0.0570  0.2026
    1CHOL    R315164  18.750  21.166   2.557  0.0408 -0.0044  0.0173
    1CHOL    R415165  18.632  21.425   2.623  0.2688  0.0292  0.3291
    1CHOL    R515166  18.713  21.280   2.764  0.1676 -0.2038  0.1562
    1CHOL    C115167  18.355  21.305   2.893  0.2032 -0.0445  0.2289
    1CHOL    C215168  18.385  21.456   3.210  0.0143  0.1373  0.1194
    1CHOL   ROH15169  19.106   3.884   4.575  0.1707  0.1403  0.0556
    1CHOL    R115170  19.139   3.810   4.846  0.0435  0.1013  0.0607
    1CHOL    R215171  19.177   3.995   5.047  0.0639  0.0656  0.0870
    1CHOL    R315172  18.964   3.868   5.159 -0.0345  0.1576  0.0077
    1CHOL    R415173  19.074   4.033   5.375 -0.0054  0.0697  0.0654
    1CHOL    R515174  19.035   3.818   5.383 -0.1194  0.0859  0.0212
    1CHOL    C115175  18.815   3.935   5.672 -0.1382  0.1585 -0.0216
    1CHOL    C215176  18.497   4.081   5.952  0.2779  0.0810  0.0825
    1CHOL   ROH15177  14.997  10.114   6.795 -0.0536  0.1604  0.0196
    1CHOL    R115178  14.975  10.214   6.531  0.0074  0.0945 -0.0118
    1CHOL    R215179  15.129  10.424   6.439  0.0276  0.0770 -0.0296
    1CHOL    R315180  15.194  10.248   6.242  0.0775  0.0257  0.0339
    1CHOL    R415181  15.186  10.508   6.108 -0.1238 -0.0461 -0.0873
    1CHOL    R515182  15.078  10.328   6.049 -0.0290 -0.1394  0.0302
    1CHOL    C115183  15.280  10.391   5.732 -0.1651 -0.1660 -0.0613
    1CHOL    C215184  15.409  10.420   5.313 -0.3016  0.0438 -0.1336
    1CHOL   ROH15185  23.413  11.095   6.632  0.0317 -0.1889 -0.0271
    1CHOL    R115186  23.510  11.171   6.377  0.0113 -0.1468 -0.0220
    1CHOL    R215187  23.431  11.044   6.145 -0.0340 -0.0850 -0.0387
    1CHOL    R315188  23.366  11.297   6.067 -0.0083 -0.0591  0.0215
    1CHOL    R415189  23.412  11.150   5.816 -0.2789 -0.0763 -0.0237
    1CHOL    R515190  23.506  11.337   5.876 -0.1551 -0.1107 -0.1013
    1CHOL    C115191  23.340  11.448   5.552 -0.3970 -0.0470  0.0416
    1CHOL    C215192  23.587  11.409   5.210  0.0031  0.1168  0.2298
    1CHOL   ROH15193   2.740  25.576   4.849  0.1384  0.0626  0.0874
    1CHOL    R115194   2.558  25.404   4.717  0.1127  0.0803  0.0988
    1CHOL    R215195   2.389  25.491   4.516  0.0959  0.1007  0.1198
    1CHOL    R315196   2.503  25.287   4.377  0.0690  0.1002  0.0992
    1CHOL    R415197   2.264  25.360   4.222  0.0758  0.1424  0.1102
    1CHOL    R515198   2.317  25.161   4.295  0.0533  0.1301  0.0907
    1CHOL    C115199   2.298  25.092   3.920  0.0388  0.1661  0.0853
    1CHOL    C215200   2.057  24.846   3.655 -0.2297  0.3554 -0.1113
    1CHOL   ROH15201  10.479  12.066   5.813 -0.0338 -0.0675  0.1747
    1CHOL    R115202  10.235  11.989   5.694 -0.0040 -0.0086  0.0749
    1CHOL    R215203  10.204  11.963   5.420  0.1053 -0.0126  0.0640
    1CHOL    R315204  10.117  11.714   5.486  0.0107  0.0127  0.0378
    1CHOL    R415205  10.038  11.750   5.206  0.1624  0.0143 -0.0078
    1CHOL    R515206   9.908  11.692   5.371  0.0624  0.0571 -0.0686
    1CHOL    C115207   9.859  11.392   5.142  0.1068  0.0536 -0.0742
    1CHOL    C215208   9.526  11.393   5.005  0.3465 -0.0678 -0.3417
    1CHOL   ROH15209  14.695  13.834   2.942  0.1286  0.0110 -0.0798
    1CHOL    R115210  14.573  13.920   3.183  0.1011  0.0085 -0.0936
    1CHOL    R215211  14.598  13.780   3.420  0.0996  0.0229 -0.0868
    1CHOL    R315212  14.685  14.020   3.515  0.0647  0.0380 -0.0900
    1CHOL    R415213  14.524  13.908   3.733  0.0874  0.0169 -0.0863
    1CHOL    R515214  14.500  14.105   3.641  0.0549  0.0121 -0.0871
    1CHOL    C115215  14.562  14.208   4.003  0.0474  0.0275 -0.0890
    1CHOL    C215216  14.283  14.450   3.953  0.2968 -0.0767  0.2167
    1CHOL   ROH15217   1.485  23.679   5.473  0.0974  0.2762 -0.1901
    1CHOL    R115218   1.343  23.470   5.345  0.1188  0.1273  0.0243
    1CHOL    R215219   1.157  23.515   5.147  0.0371 -0.0909  0.0485
    1CHOL    R315220   1.311  23.341   5.007  0.0433 -0.1559  0.1356
    1CHOL    R415221   1.046  23.320   4.884  0.0941 -0.0551 -0.0021
    1CHOL    R515222   1.166  23.156   4.962 -0.0087 -0.1010  0.0679
    1CHOL    C115223   1.126  23.042   4.600  0.1332 -0.0954  0.0501
    1CHOL    C215224   0.869  22.627   4.577  0.2004  0.1990 -0.0604
    1CHOL   ROH15225  16.950  13.405   3.073 -0.2317 -0.0826  0.0532
    1CHOL    R115226  16.916  13.626   3.247 -0.1483 -0.0673  0.0511
    1CHOL    R215227  16.730  13.627   3.452 -0.0307 -0.0610  0.1590
    1CHOL    R315228  16.947  13.689   3.604  0.0534 -0.0287  0.0280
    1CHOL    R415229  16.723  13.682   3.793  0.1717 -0.0845  0.1681
    1CHOL    R515230  16.864  13.846   3.765  0.1229 -0.0551  0.0902
    1CHOL    C115231  16.922  13.772   4.135  0.3684 -0.0678  0.0504
    1CHOL    C215232  17.126  13.837   4.412  0.2355 -0.1834  0.0810
    1CHOL   ROH15233  17.550   3.488   4.740 -0.0695 -0.1009  0.0275
    1CHOL    R115234  17.414   3.592   4.965 -0.2317 -0.0671 -0.0852
    1CHOL    R215235  17.198   3.465   5.080  0.0412 -0.3516  0.1210
    1CHOL    R315236  17.347   3.484   5.306  0.0526  0.2484  0.0777
    1CHOL    R415237  17.076   3.420   5.401  0.2718 -0.7643  0.1591
    1CHOL    R515238  17.200   3.588   5.465 -0.3191 -0.2605  0.0968
    1CHOL    C115239  17.146   3.413   5.800  0.4169 -0.4413  0.1406
    1CHOL    C215240  17.125   3.214   6.083 -0.0622  0.1568 -0.1452
    1CHOL   ROH15241  25.913  15.997   3.192 -0.1578  0.1498 -0.0712
    1CHOL    R115242  25.879  15.923   3.463  0.0393 -0.0093 -0.0871
    1CHOL    R215243  26.081  15.948   3.651  0.0765  0.1978 -0.1439
    1CHOL    R315244  25.893  16.089   3.786 -0.0808 -0.1160 -0.0281
    1CHOL    R415245  26.086  16.010   3.991  0.0052 -0.0509 -0.0968
    1CHOL    R515246  25.871  15.975   3.995  0.0474 -0.2954 -0.1151
    1CHOL    C115247  25.911  16.178   4.316 -0.1840 -0.4905  0.0393
    1CHOL    C215248  25.842  16.459   4.518 -0.1734 -0.1485 -0.3410
    1CHOL   ROH15249  21.427   9.059   6.554 -0.0268  0.2121  0.0500
    1CHOL    R115250  21.494   8.885   6.341 -0.0326  0.0925  0.1449
    1CHOL    R215251  21.310   8.805   6.151 -0.0099  0.0790  0.1294
    1CHOL    R315252  21.496   8.901   5.977  0.0756 -0.0684  0.1371
    1CHOL    R415253  21.352   8.695   5.826 -0.0435  0.0037  0.1500
    1CHOL    R515254  21.568   8.708   5.854 -0.0367 -0.1349  0.1736
    1CHOL    C115255  21.550   8.722   5.473  0.0171 -0.1786  0.1693
    1CHOL    C215256  21.790   8.388   5.280  0.0973  0.0986 -0.0900
    1CHOL   ROH15257  17.473   7.559   7.320 -0.1885 -0.0213  0.0749
    1CHOL    R115258  17.561   7.722   7.106 -0.0711  0.0525  0.1786
    1CHOL    R215259  17.828   7.762   7.050 -0.0418 -0.0936  0.2140
    1CHOL    R315260  17.756   7.677   6.802 -0.0916  0.1086  0.1570
    1CHOL    R415261  18.041   7.742   6.778  0.0037 -0.2505  0.2598
    1CHOL    R515262  17.879   7.818   6.653  0.1311  0.0165  0.2498
    1CHOL    C115263  18.096   7.650   6.387 -0.0164 -0.1521  0.2329
    1CHOL    C215264  18.233   7.462   6.010  0.1914  0.0860 -0.0725
    1CHOL   ROH15265  23.643  17.475   5.746 -0.2078 -0.2550 -0.0848
    1CHOL    R115266  23.736  17.405   5.488 -0.2070 -0.2943 -0.0732
    1CHOL    R215267  23.567  17.328   5.284 -0.2251 -0.1073 -0.1258
    1CHOL    R315268  23.693  17.527   5.148 -0.0130 -0.1966 -0.0655
    1CHOL    R415269  23.533  17.388   4.945 -0.3778  0.1845 -0.0628
    1CHOL    R515270  23.747  17.429   4.936 -0.3109 -0.1356 -0.1781
    1CHOL    C115271  23.631  17.609   4.620 -0.2676  0.2706  0.0303
    1CHOL    C215272  23.730  17.444   4.291  0.0260 -0.1306 -0.2077
    1CHOL   ROH15273   3.409  15.861   5.991 -0.1073 -0.0547 -0.0162
    1CHOL    R115274   3.202  15.869   5.798 -0.0424 -0.0707 -0.0870
    1CHOL    R215275   3.140  16.098   5.655 -0.1389 -0.0202  0.0309
    1CHOL    R315276   3.177  15.935   5.441  0.0484  0.1329 -0.0561
    1CHOL    R415277   2.982  16.135   5.351 -0.0037  0.0855 -0.0277
    1CHOL    R515278   2.960  15.918   5.341  0.1093  0.0824 -0.1761
    1CHOL    C115279   2.924  16.003   4.971  0.2508  0.2907 -0.1437
    1CHOL    C215280   2.783  16.261   4.744  0.1022 -0.1092 -0.0994
    1CHOL   ROH15281   1.203  22.369   2.806 -0.0372 -0.1287  0.0193
    1CHOL    R115282   1.106  22.528   3.019 -0.0737 -0.0927 -0.0244
    1CHOL    R215283   0.915  22.438   3.198 -0.0313 -0.0975  0.0157
    1CHOL    R315284   1.101  22.509   3.382 -0.0430  0.0214 -0.0170
    1CHOL    R415285   0.845  22.529   3.524 -0.0333 -0.1781  0.0382
    1CHOL    R515286   0.997  22.684   3.507 -0.1477 -0.0640  0.0198
    1CHOL    C115287   0.979  22.649   3.887 -0.0456 -0.1133  0.0205
    1CHOL    C215288   0.962  22.866   4.111  0.1539 -0.0810 -0.0035
    1CHOL   ROH15289  18.060   3.441   4.634 -0.1178 -0.1364  0.0727
    1CHOL    R115290  17.991   3.406   4.907 -0.3155 -0.1609  0.0201
    1CHOL    R215291  18.086   3.571   5.107 -0.2022 -0.3729  0.1396
    1CHOL    R315292  17.822   3.601   5.163 -0.1986 -0.0421  0.0099
    1CHOL    R415293  17.956   3.636   5.421 -0.2670 -0.1502  0.0691
    1CHOL    R515294  17.794   3.497   5.377 -0.4195  0.0312  0.0230
    1CHOL    C115295  17.633   3.702   5.656 -0.3016  0.2900 -0.0937
    1CHOL    C215296  17.574   3.502   6.041  0.3999 -0.0357  0.2299
    1CHOL   ROH15297  24.290  22.326   3.582 -0.1236 -0.0232 -0.0284
    1CHOL    R115298  24.363  22.201   3.825 -0.0486  0.0092 -0.0339
    1CHOL    R215299  24.437  22.344   4.050  0.0715  0.0376 -0.0910
    1CHOL    R315300  24.241  22.198   4.168  0.0912  0.0987  0.0184
    1CHOL    R415301  24.380  22.329   4.391  0.2819  0.0320 -0.0554
    1CHOL    R515302  24.342  22.115   4.369  0.1904  0.0458 -0.0508
    1CHOL    C115303  24.164  22.182   4.700  0.4229  0.0861  0.0680
    1CHOL    C215304  23.875  21.960   5.029  0.5851 -0.0195 -0.0484
    1CHOL   ROH15305  21.357   8.537   3.660  0.0308  0.0195  0.1008
    1CHOL    R115306  21.231   8.746   3.804  0.0630  0.1502 -0.0584
    1CHOL    R215307  21.133   8.712   4.060 -0.3761  0.2212 -0.2078
    1CHOL    R315308  21.291   8.927   4.114 -0.1866  0.0202  0.0680
    1CHOL    R415309  21.144   8.877   4.364 -0.3925 -0.0312 -0.0670
    1CHOL    R515310  21.155   9.066   4.255 -0.1299  0.0473  0.0928
    1CHOL    C115311  21.299   9.174   4.591 -0.2242 -0.3668  0.2740
    1CHOL    C215312  21.125   9.018   4.908  0.0309  0.0156 -0.1853
    1CHOL   ROH15313   0.171  25.810   2.982  0.0141  0.0161  0.0424
    1CHOL    R115314   0.408  25.878   3.122 -0.0528 -0.1187  0.2246
    1CHOL    R215315   0.471  25.773   3.370 -0.1843 -0.3449  0.1621
    1CHOL    R315316   0.702  25.703   3.245 -0.1223 -0.2426  0.2164
    1CHOL    R415317   0.777  25.736   3.526 -0.1586 -0.0069  0.2013
    1CHOL    R515318   0.870  25.832   3.355 -0.2265 -0.0388  0.1442
    1CHOL    C115319   1.172  25.648   3.500 -0.0854  0.2862  0.2750
    1CHOL    C215320   1.461  25.717   3.726  0.0724  0.0446 -0.3570
    1CHOL   ROH15321  26.658  13.915   6.500  0.1777  0.0079  0.1183
    1CHOL    R115322  26.595  13.821   6.240  0.0999  0.1505  0.0836
    1CHOL    R215323  26.607  13.983   6.017  0.3495  0.1940  0.1183
    1CHOL    R315324  26.768  13.785   5.923  0.1145  0.0033  0.1096
    1CHOL    R415325  26.694  13.940   5.685  0.3848  0.1546  0.1333
    1CHOL    R515326  26.672  13.725   5.712  0.0945  0.1803  0.0723
    1CHOL    C115327  26.896  13.729   5.404  0.1845 -0.0473  0.1339
    1CHOL    C215328  26.790  13.440   5.241 -0.3665 -0.2990  0.0101
    1CHOL   ROH15329  22.808  10.416   6.539  0.0048  0.3622 -0.0801
    1CHOL    R115330  22.906  10.443   6.275  0.0762  0.1102 -0.0833
    1CHOL    R215331  23.034  10.238   6.141 -0.1145 -0.1054  0.0497
    1CHOL    R315332  22.844  10.286   5.953 -0.0401 -0.0119 -0.0008
    1CHOL    R415333  23.069  10.175   5.803  0.0238  0.1015  0.0242
    1CHOL    R515334  22.966  10.362   5.762  0.0260  0.1125  0.0939
    1CHOL    C115335  22.911  10.183   5.430  0.1742  0.3099 -0.0382
    1CHOL    C215336  22.792  10.113   5.084 -0.1723 -0.0520  0.0536
    1CHOL   ROH15337  14.727  24.602   5.142 -0.2011 -0.1240  0.1465
    1CHOL    R115338  14.548  24.664   4.931 -0.0462  0.0083  0.0508
    1CHOL    R215339  14.634  24.749   4.683  0.1488 -0.0406  0.0952
    1CHOL    R315340  14.482  24.542   4.595  0.0529  0.0639  0.0125
    1CHOL    R415341  14.571  24.677   4.351  0.1565  0.0743  0.0684
    1CHOL    R515342  14.365  24.630   4.405  0.1281  0.1691  0.0200
    1CHOL    C115343  14.391  24.441   4.075  0.0710  0.2394 -0.0249
    1CHOL    C215344  14.133  24.536   3.810 -0.0788  0.1994 -0.0569
    1CHOL   ROH15345  14.667  11.903   6.245 -0.1446  0.0125 -0.1031
    1CHOL    R115346  14.874  11.892   6.052 -0.1047 -0.0438 -0.0569
    1CHOL    R215347  14.863  11.728   5.830 -0.1078 -0.0272 -0.0667
    1CHOL    R315348  14.909  11.960   5.696 -0.0011 -0.0356 -0.0465
    1CHOL    R415349  14.917  11.751   5.490  0.1822 -0.0570 -0.0251
    1CHOL    R515350  15.071  11.901   5.530  0.1457 -0.0466  0.0952
    1CHOL    C115351  14.992  11.983   5.166  0.4511 -0.0824  0.0181
    1CHOL    C215352  15.100  11.704   4.902 -0.0188  0.1324 -0.4297
    1CHOL   ROH15353  24.200  13.491   3.112 -0.0484 -0.0989  0.0957
    1CHOL    R115354  24.277  13.392   3.366 -0.0317  0.0264  0.1394
    1CHOL    R215355  24.497  13.487   3.503 -0.0568  0.1295  0.0985
    1CHOL    R315356  24.315  13.526   3.702 -0.0628  0.1768  0.0853
    1CHOL    R415357  24.551  13.417   3.837 -0.0999  0.0884  0.0979
    1CHOL    R515358  24.348  13.340   3.849 -0.1316  0.1516  0.0756
    1CHOL    C115359  24.413  13.413   4.218 -0.1308  0.1089  0.0851
    1CHOL    C215360  24.410  13.573   4.567  0.1415  0.1346 -0.1254
    1CHOL   ROH15361  11.547   8.853   3.382  0.1830  0.0104 -0.0693
    1CHOL    R115362  11.495   9.047   3.581  0.3697 -0.0150  0.0066
    1CHOL    R215363  11.255   9.059   3.717  0.2627  0.3457 -0.2036
    1CHOL    R315364  11.415   9.046   3.936  0.0499 -0.0992 -0.0619
    1CHOL    R415365  11.177   9.192   4.026  0.2439  0.3207 -0.1974
    1CHOL    R515366  11.384   9.258   4.044  0.3673 -0.0931  0.0287
    1CHOL    C115367  11.282   9.258   4.412  0.0329 -0.1114 -0.0607
    1CHOL    C215368  11.340   9.545   4.609  0.0820 -0.0457  0.0935
    1CHOL   ROH15369   6.810  22.461   5.241 -0.2304 -0.2560  0.0471
    1CHOL    R115370   6.991  22.445   5.024 -0.1899 -0.2020  0.0792
    1CHOL    R215371   6.909  22.406   4.764 -0.1408 -0.1003  0.0574
    1CHOL    R315372   7.055  22.631   4.718 -0.0995 -0.1042  0.1535
    1CHOL    R415373   7.001  22.520   4.451 -0.4360  0.2011  0.0726
    1CHOL    R515374   7.196  22.572   4.533 -0.3170  0.0311 -0.0712
    1CHOL    C115375   7.192  22.797   4.225 -0.5692  0.3728  0.1716
    1CHOL    C215376   7.133  22.966   3.877  0.0230  0.0047 -0.1195
    1CHOL   ROH15377  15.682   5.342   4.263  0.0284 -0.0590  0.1219
    1CHOL    R115378  15.669   5.253   4.532  0.0692 -0.0334  0.1328
    1CHOL    R215379  15.881   5.126   4.657  0.0836 -0.0385  0.1086
    1CHOL    R315380  15.847   5.322   4.841  0.1300 -0.0172  0.0938
    1CHOL    R415381  15.984   5.107   4.986  0.0804 -0.0332  0.1095
    1CHOL    R515382  15.798   5.205   5.044  0.1054  0.0125  0.1030
    1CHOL    C115383  16.013   5.280   5.351  0.1223 -0.0101  0.0961
    1CHOL    C215384  15.943   5.455   5.632  0.2945  0.1869  0.1972
    1CHOL   ROH15385  13.854  14.286   6.044  0.2422  0.0311  0.0764
    1CHOL    R115386  13.881  14.107   5.826 -0.0133  0.0296  0.0435
    1CHOL    R215387  13.791  14.167   5.572  0.1805  0.2589  0.0303
    1CHOL    R315388  14.047  14.107   5.502  0.1017 -0.1987  0.0987
    1CHOL    R415389  13.899  14.105   5.249  0.1836  0.2815  0.0266
    1CHOL    R515390  14.025  13.945   5.328 -0.1565 -0.0363 -0.0311
    1CHOL    C115391  14.202  14.013   4.997  0.1113 -0.1350  0.0886
    1CHOL    C215392  14.145  13.994   4.675 -0.1058 -0.0786  0.2060
    1CHOL   ROH15393  17.453   6.965   4.146  0.0120 -0.0448 -0.0932
    1CHOL    R115394  17.461   6.908   4.423  0.0801 -0.1420 -0.1150
    1CHOL    R215395  17.658   7.009   4.589  0.0604 -0.1145 -0.1098
    1CHOL    R315396  17.445   7.099   4.732  0.0417 -0.2620 -0.0423
    1CHOL    R415397  17.650   7.040   4.933  0.2737  0.2047 -0.1296
    1CHOL    R515398  17.445   6.965   4.931  0.3676 -0.0751  0.0908
    1CHOL    C115399  17.445   7.143   5.268  0.3803  0.2520 -0.0778
    1CHOL    C215400  17.467   6.997   5.547 -0.0182  0.0505 -0.0860
    1CHOL   ROH15401  18.870  10.105   3.370 -0.0296 -0.0903  0.1330
    1CHOL    R115402  18.814  10.111   3.647 -0.0109  0.0979  0.1337
    1CHOL    R215403  18.991  10.015   3.837 -0.1277 -0.0590  0.1638
    1CHOL    R315404  18.962  10.263   3.943  0.2045  0.0280  0.0641
    1CHOL    R415405  19.082  10.104   4.158 -0.1265 -0.0876  0.1716
    1CHOL    R515406  18.901  10.223   4.171  0.0446  0.1979  0.0538
    1CHOL    C115407  19.108  10.388   4.445  0.1861 -0.0226  0.0825
    1CHOL    C215408  19.096  10.399   4.892  0.1974 -0.3916  0.0620
    1CHOL   ROH15409  26.750  25.078   5.638  0.2067 -0.0741  0.0228
    1CHOL    R115410  26.700  24.815   5.546  0.1436 -0.0537 -0.0026
    1CHOL    R215411  26.446  24.705   5.537  0.1222 -0.0085  0.0299
    1CHOL    R315412  26.509  24.661   5.277  0.0670  0.0155  0.0124
    1CHOL    R415413  26.257  24.517   5.318  0.0258  0.0941  0.0240
    1CHOL    R515414  26.442  24.434   5.237 -0.0155  0.0457 -0.0183
    1CHOL    C115415  26.206  24.366   4.945 -0.0821  0.1764  0.0042
    1CHOL    C215416  25.860  24.185   4.957 -0.0816  0.0726 -0.1267
    1CHOL   ROH15417  13.993   8.922   6.976  0.0707  0.1306  0.0428
    1CHOL    R115418  14.162   8.909   6.750  0.0156  0.2234 -0.0036
    1CHOL    R215419  14.296   8.678   6.677  0.0947  0.2883 -0.0591
    1CHOL    R315420  14.172   8.720   6.438  0.0139  0.2558 -0.0240
    1CHOL    R415421  14.300   8.458   6.410  0.1779  0.3398 -0.1013
    1CHOL    R515422  14.322   8.628   6.276  0.0395  0.3821 -0.0749
    1CHOL    C115423  14.186   8.370   6.031  0.1505  0.3392 -0.0928
    1CHOL    C215424  14.008   8.073   5.796 -0.1686 -0.0357 -0.0027
    1CHOL   ROH15425   3.524   1.250   3.625  0.0334 -0.0088  0.0624
    1CHOL    R115426   3.579   1.091   3.853 -0.0312 -0.0611  0.0413
    1CHOL    R215427   3.529   0.820   3.862  0.0702 -0.0811 -0.0756
    1CHOL    R315428   3.791   0.806   3.933  0.0369 -0.0045  0.0676
    1CHOL    R415429   3.667   0.572   4.059  0.0485 -0.1004 -0.0838
    1CHOL    R515430   3.787   0.725   4.158 -0.0637 -0.0859  0.0400
    1CHOL    C115431   3.994   0.416   4.241  0.0046 -0.0397  0.0459
    1CHOL    C215432   4.224   0.310   4.489  0.0927  0.0630  0.0024
    1CHOL   ROH15433   7.859  25.454   3.076 -0.0512  0.0229 -0.0742
    1CHOL    R115434   7.834  25.565   3.335  0.0207 -0.0546 -0.0337
    1CHOL    R215435   7.843  25.411   3.564  0.1250 -0.1189 -0.0803
    1CHOL    R315436   8.039  25.585   3.635  0.1221 -0.1074 -0.0991
    1CHOL    R415437   7.949  25.468   3.888  0.1198 -0.0710 -0.0864
    1CHOL    R515438   7.963  25.680   3.841  0.1187 -0.0788 -0.1146
    1CHOL    C115439   8.195  25.665   4.143  0.1140 -0.0324 -0.1077
    1CHOL    C215440   8.019  25.738   4.475  0.1002  0.0989  0.2000
    1CHOL   ROH15441  26.406   5.608   6.430  0.1167  0.0015 -0.0234
    1CHOL    R115442  26.192   5.693   6.265  0.0782  0.0429  0.0447
    1CHOL    R215443  26.231   5.792   6.010  0.0335  0.2496  0.1075
    1CHOL    R315444  26.054   5.598   5.942  0.1114  0.2247 -0.0209
    1CHOL    R415445  26.084   5.759   5.699  0.1117  0.3236  0.0633
    1CHOL    R515446  25.897   5.708   5.799  0.1116  0.2243 -0.0091
    1CHOL    C115447  25.831   5.558   5.454  0.2301  0.3432 -0.0829
    1CHOL    C215448  25.738   5.549   5.047 -0.0859 -0.1431 -0.3247
    1CHOL   ROH15449  18.083  15.036   2.894 -0.0192  0.0210  0.1709
    1CHOL    R115450  18.042  15.170   3.140  0.1026  0.0833  0.1566
    1CHOL    R215451  18.173  15.098   3.373  0.2027  0.1318  0.1114
    1CHOL    R315452  18.247  15.359   3.374  0.2218  0.1282  0.0201
    1CHOL    R415453  18.290  15.268   3.650  0.2185  0.2124  0.0560
    1CHOL    R515454  18.173  15.441   3.587  0.2275  0.2032 -0.0028
    1CHOL    C115455  18.427  15.613   3.812  0.2455  0.2561 -0.0619
    1CHOL    C215456  18.177  15.717   4.054 -0.0950  0.3505  0.1172
    1CHOL   ROH15457  19.756  15.150   5.775 -0.1569  0.0223 -0.1231
    1CHOL    R115458  19.741  14.875   5.838 -0.2428  0.0770  0.1070
    1CHOL    R215459  19.510  14.757   5.934 -0.3765  0.1705 -0.0862
    1CHOL    R315460  19.547  14.588   5.724 -0.1008 -0.0194  0.1076
    1CHOL    R415461  19.373  14.441   5.911 -0.5989  0.2673 -0.1147
    1CHOL    R515462  19.562  14.371   5.826 -0.4820  0.0402  0.3081
    1CHOL    C115463  19.328  14.098   5.700 -0.4696  0.1452  0.0507
    1CHOL    C215464  19.164  13.848   5.626 -0.1473 -0.0240 -0.0863
    1CHOL   ROH15465  18.657   3.170   7.439  0.0246 -0.0614 -0.0130
    1CHOL    R115466  18.510   3.190   7.197  0.1247 -0.2093 -0.0874
    1CHOL    R215467  18.515   3.417   7.038 -0.0756 -0.1776 -0.0473
    1CHOL    R315468  18.587   3.240   6.845  0.2491 -0.0588 -0.0412
    1CHOL    R415469  18.496   3.476   6.698 -0.2784 -0.2451 -0.0488
    1CHOL    R515470  18.426   3.272   6.671  0.1322 -0.4057 -0.0089
    1CHOL    C115471  18.553   3.345   6.319 -0.0916 -0.1728 -0.0441
    1CHOL    C215472  18.655   3.586   6.029 -0.2733  0.1305  0.1501
    1CHOL   ROH15473  21.173   8.078   7.197  0.2655  0.3018 -0.1183
    1CHOL    R115474  21.080   8.163   6.943  0.3747  0.2043 -0.1926
    1CHOL    R215475  21.193   8.078   6.706  0.2135 -0.2185 -0.1249
    1CHOL    R315476  20.938   8.006   6.647  0.0845  0.1348 -0.0219
    1CHOL    R415477  21.085   7.966   6.397 -0.0325 -0.1841 -0.0532
    1CHOL    R515478  20.904   8.084   6.424  0.1418  0.1000 -0.0459
    1CHOL    C115479  20.783   7.834   6.162 -0.2967  0.1676  0.0852
    1CHOL    C215480  20.589   7.568   5.905  0.1217  0.2674 -0.0275
    1CHOL   ROH15481  29.645  15.205   3.348  0.0074  0.0469  0.0810
    1CHOL    R115482  29.597  15.391   3.556 -0.0511  0.0743  0.0435
    1CHOL    R215483  29.591  15.317   3.822 -0.1462  0.1055  0.0498
    1CHOL    R315484  29.778  15.513   3.848 -0.1419  0.0962  0.0909
    1CHOL    R415485  29.722  15.426   4.123  0.0013 -0.0981  0.0610
    1CHOL    R515486  29.713  15.630   4.047 -0.0470 -0.0443  0.2069
    1CHOL    C115487   0.115  15.672   4.322  0.0914 -0.2254  0.1061
    1CHOL    C215488   0.221  16.033   4.498  0.1127  0.1913  0.1468
    1CHOL   ROH15489  22.478  10.146   6.552  0.2301 -0.2774  0.0842
    1CHOL    R115490  22.541  10.098   6.281  0.0995 -0.2047  0.0418
    1CHOL    R215491  22.394   9.925   6.122 -0.0567 -0.0527  0.0317
    1CHOL    R315492  22.376  10.142   5.959  0.0062  0.0185  0.1153
    1CHOL    R415493  22.324   9.912   5.784 -0.2621  0.0954  0.0655
    1CHOL    R515494  22.472  10.069   5.753 -0.1592  0.0059  0.0331
    1CHOL    C115495  22.266  10.108   5.434 -0.3226  0.2484  0.1636
    1CHOL    C215496  22.220  10.019   5.093  0.1611 -0.0451  0.5116
    1CHOL   ROH15497  23.280  12.708   3.137 -0.0620 -0.2162  0.0077
    1CHOL    R115498  23.299  12.467   3.284 -0.0090 -0.1732  0.0698
    1CHOL    R215499  23.534  12.382   3.401 -0.0158 -0.0455  0.1629
    1CHOL    R315500  23.381  12.372   3.626 -0.0798 -0.0633  0.1203
    1CHOL    R415501  23.642  12.267   3.708 -0.0284  0.1136  0.2291
    1CHOL    R515502  23.449  12.169   3.734  0.0138  0.0041  0.2014
    1CHOL    C115503  23.562  12.190   4.098 -0.0959  0.1895  0.2277
    1CHOL    C215504  23.642  12.343   4.509 -0.4873  0.0483  0.3614
    1DPPC   NC315505  14.955   9.597   3.248 -0.2067  0.0022  0.3960
    1DPPC   PO415506  15.008   9.168   3.346 -0.4213  0.3697 -0.1584
    1DPPC   GL115507  14.852   9.337   3.665 -0.1260 -0.4231 -0.0693
    1DPPC   GL215508  15.093   9.423   3.793  0.2050  0.0415  0.0951
    1DPPC   C1A15509  14.659   9.267   4.065  0.0307 -0.0951  0.0284
    1DPPC   C2A15510  14.577   9.437   4.482 -0.1902 -0.1224 -0.0218
    1DPPC   C3A15511  14.331   9.876   4.794  0.1632  0.5065 -0.2157
    1DPPC   C4A15512  14.365  10.221   4.968  0.1257  0.1063  0.2763
    1DPPC   C1B15513  15.079   9.465   4.214 -0.2232 -0.1341  0.1559
    1DPPC   C2B15514  15.080   9.454   4.548  0.2718  0.1445 -0.2175
    1DPPC   C3B15515  14.927   9.448   4.891 -0.0511  0.2886  0.1448
    1DPPC   C4B15516  14.752   9.743   5.229  0.2276  0.2823  0.2182
    1DPPC   NC315517  22.751  29.294   3.224  0.0569  0.1054  0.1632
    1DPPC   PO415518  22.916  29.669   3.107 -0.2101  0.2599  0.1246
    1DPPC   GL115519  22.959  29.594   3.579  0.0564 -0.2061  0.0449
    1DPPC   GL215520  22.871  29.835   3.737 -0.1976 -0.0891  0.3774
    1DPPC   C1A15521  23.328  29.628   3.960 -0.1176 -0.1033  0.4085
    1DPPC   C2A15522  23.526  29.820   4.348  0.0881 -0.1931 -0.2001
    1DPPC   C3A15523  23.761  29.616   4.657 -0.0608 -0.2015 -0.1210
    1DPPC   C4A15524  23.893  29.643   4.999 -0.0020 -0.3356  0.2269
    1DPPC   C1B15525  22.941   0.067   4.157  0.1702  0.0881 -0.4338
    1DPPC   C2B15526  23.061  29.850   4.582  0.2343  0.1789  0.0170
    1DPPC   C3B15527  23.300  29.606   4.759 -0.2362  0.2397  0.0749
    1DPPC   C4B15528  23.496  29.306   4.975 -0.0407  0.1543  0.2231
    1DPPC   NC315529  17.986  14.617   2.056  0.3466 -0.0826 -0.2653
    1DPPC   PO415530  17.601  14.396   2.408 -0.2332 -0.2317 -0.0280
    1DPPC   GL115531  17.600  14.344   2.848 -0.0250 -0.3340  0.0498
    1DPPC   GL215532  17.819  14.574   3.033 -0.2746 -0.0420  0.0453
    1DPPC   C1A15533  17.457  14.302   3.345  0.0937 -0.1236  0.0972
    1DPPC   C2A15534  17.539  14.432   3.730  0.0744 -0.2150 -0.3533
    1DPPC   C3A15535  17.649  14.669   4.036  0.1004 -0.0612 -0.1266
    1DPPC   C4A15536  17.652  15.002   4.367  0.0023 -0.0482 -0.2109
    1DPPC   C1B15537  17.726  14.759   3.312  0.1226  0.2419 -0.1462
    1DPPC   C2B15538  17.838  14.799   3.616  0.0612 -0.2691  0.3925
    1DPPC   C3B15539  17.972  15.094   4.008  0.1959  0.0632  0.0482
    1DPPC   C4B15540  18.335  15.241   4.189  0.0302  0.2224 -0.0678
    1DPPC   NC315541  21.628   6.664   3.915  0.0322 -0.2205 -0.2961
    1DPPC   PO415542  21.288   6.377   4.046 -0.1602 -0.0474  0.4444
    1DPPC   GL115543  21.477   6.509   4.401 -0.0090 -0.0630 -0.0370
    1DPPC   GL215544  21.821   6.547   4.376  0.0874 -0.1520 -0.3309
    1DPPC   C1A15545  21.382   6.463   4.815 -0.0012  0.0515  0.0355
    1DPPC   C2A15546  21.416   6.406   5.194  0.0020 -0.0946  0.3003
    1DPPC   C3A15547  21.499   6.429   5.575 -0.0725 -0.1119 -0.0515
    1DPPC   C4A15548  21.763   6.338   5.797 -0.0041  0.0688 -0.1140
    1DPPC   C1B15549  21.873   6.498   4.810  0.2351  0.0021  0.0459
    1DPPC   C2B15550  21.974   6.498   5.298  0.1178 -0.0770  0.0635
    1DPPC   C3B15551  22.192   6.596   5.695  0.3005 -0.2233 -0.1539
    1DPPC   C4B15552  22.184   6.329   6.067 -0.1207 -0.1261  0.0497
    1DPPC   NC315553  18.173  10.293   2.310  0.2434  0.0002 -0.0030
    1DPPC   PO415554  18.259  10.598   2.659  0.0009  0.0220 -0.0901
    1DPPC   GL115555  18.106  10.710   3.103  0.1595  0.1367 -0.0661
    1DPPC   GL215556  18.233  10.986   3.172 -0.0409 -0.1832 -0.1811
    1DPPC   C1A15557  18.068  10.625   3.565 -0.1270  0.1492 -0.2747
    1DPPC   C2A15558  18.088  10.673   3.992  0.2278  0.5035  0.2275
    1DPPC   C3A15559  18.028  10.797   4.404 -0.3371  0.0171 -0.1231
    1DPPC   C4A15560  18.280  10.805   4.812 -0.2361  0.1497 -0.1392
    1DPPC   C1B15561  18.292  11.081   3.641  0.0422 -0.2695  0.2237
    1DPPC   C2B15562  18.340  11.108   4.070  0.0054 -0.3303  0.0536
    1DPPC   C3B15563  18.284  11.221   4.440 -0.2809  0.0790 -0.2764
    1DPPC   C4B15564  18.439  11.264   4.881 -0.3391  0.1067  0.1195
    1DPPC   NC315565   5.722   1.820   2.792 -0.2428  0.0757  0.2015
    1DPPC   PO415566   5.586   2.235   2.526 -0.0167  0.2685 -0.0843
    1DPPC   GL115567   5.572   2.287   3.011  0.1054  0.0598  0.1351
    1DPPC   GL215568   5.830   2.518   3.129  0.2981 -0.0822 -0.2390
    1DPPC   C1A15569   5.452   2.163   3.443  0.0018  0.1610  0.0655
    1DPPC   C2A15570   5.092   1.975   3.588 -0.1487  0.0226 -0.1754
    1DPPC   C3A15571   4.800   1.798   3.621  0.0598 -0.0430  0.2148
    1DPPC   C4A15572   4.532   1.649   3.910 -0.3038 -0.2303  0.1808
    1DPPC   C1B15573   5.582   2.702   3.564  0.0123 -0.1137 -0.2520
    1DPPC   C2B15574   5.555   2.812   3.961  0.0802 -0.1433  0.2293
    1DPPC   C3B15575   5.306   2.693   4.333 -0.3599 -0.0080  0.0307
    1DPPC   C4B15576   5.456   2.460   4.650  0.1269  0.0534  0.4555
    1DPPC   NC315577  21.784  13.585   2.556 -0.3158  0.2650  0.1418
    1DPPC   PO415578  22.260  13.518   2.640  0.0799 -0.2386  0.1041
    1DPPC   GL115579  22.147  13.602   2.999  0.1971 -0.0574 -0.1806
    1DPPC   GL215580  22.173  13.347   3.113  0.2135  0.1979 -0.1448
    1DPPC   C1A15581  21.983  13.661   3.453  0.1386  0.1764  0.4898
    1DPPC   C2A15582  21.988  13.647   4.023 -0.1523  0.2653  0.0208
    1DPPC   C3A15583  22.060  13.583   4.437 -0.2674 -0.2509  0.0915
    1DPPC   C4A15584  22.203  13.541   4.855 -0.1236 -0.2569  0.1195
    1DPPC   C1B15585  22.449  13.298   3.450  0.1073  0.2113 -0.0379
    1DPPC   C2B15586  22.474  13.295   3.908 -0.0904  0.0818  0.0404
    1DPPC   C3B15587  22.462  13.300   4.422  0.2024  0.1292  0.0693
    1DPPC   C4B15588  22.619  13.289   4.815 -0.3685  0.3133  0.3235
    1DPPC   NC315589  16.180  10.634   2.333 -0.2487 -0.2771 -0.1756
    1DPPC   PO415590  16.118  11.006   2.579 -0.0725 -0.1903  0.0156
    1DPPC   GL115591  16.113  11.047   2.984 -0.2156 -0.2383 -0.3072
    1DPPC   GL215592  16.396  11.215   3.019  0.0696 -0.0526  0.0914
    1DPPC   C1A15593  16.151  11.089   3.427  0.2500 -0.0412 -0.0335
    1DPPC   C2A15594  16.191  11.192   3.822 -0.0139  0.1510 -0.2008
    1DPPC   C3A15595  16.127  11.210   4.249 -0.3641  0.0161  0.0062
    1DPPC   C4A15596  15.875  11.137   4.584  0.1517  0.1703  0.0342
    1DPPC   C1B15597  16.527  11.521   3.456 -0.0700  0.1169  0.1760
    1DPPC   C2B15598  16.485  11.680   3.911 -0.2747 -0.0887  0.1965
    1DPPC   C3B15599  16.430  11.681   4.338 -0.1580  0.1435  0.1526
    1DPPC   C4B15600  16.158  11.673   4.648 -0.0859 -0.0555  0.0149
    1DPPC   NC315601  25.559  13.005   2.450  0.1813  0.0580  0.2186
    1DPPC   PO415602  25.619  12.720   2.742 -0.2679 -0.0783 -0.0954
    1DPPC   GL115603  25.200  12.685   2.921 -0.1697 -0.3612 -0.4389
    1DPPC   GL215604  25.137  12.402   2.984 -0.2288 -0.0457  0.1160
    1DPPC   C1A15605  25.082  12.801   3.272 -0.0533 -0.1801  0.0133
    1DPPC   C2A15606  25.117  12.818   3.668 -0.0700 -0.3488 -0.2960
    1DPPC   C3A15607  25.253  12.757   4.047  0.1667 -0.0710 -0.0552
    1DPPC   C4A15608  25.373  13.048   4.526  0.0294  0.0335 -0.0677
    1DPPC   C1B15609  25.252  12.338   3.435  0.0814 -0.1841 -0.3008
    1DPPC   C2B15610  25.146  12.246   3.890 -0.0966  0.2018  0.1262
    1DPPC   C3B15611  25.052  12.333   4.246  0.0124 -0.3095 -0.1849
    1DPPC   C4B15612  25.303  12.508   4.627 -0.1820  0.1078 -0.1007
    1DPPC   NC315613  14.850   5.410   4.302  0.1002 -0.2053 -0.2843
    1DPPC   PO415614  14.700   5.017   4.153 -0.0363 -0.0159 -0.1789
    1DPPC   GL115615  15.007   4.928   4.424  0.1688  0.2995  0.0341
    1DPPC   GL215616  15.197   5.118   4.551  0.4523  0.1644 -0.0968
    1DPPC   C1A15617  14.944   4.810   4.893  0.1175 -0.0080 -0.1984
    1DPPC   C2A15618  14.862   4.665   5.245 -0.2959 -0.0402 -0.0473
    1DPPC   C3A15619  14.606   4.637   5.568 -0.1403 -0.2579  0.1340
    1DPPC   C4A15620  14.328   4.414   5.888 -0.2907 -0.0421 -0.0151
    1DPPC   C1B15621  15.295   5.155   5.005  0.0593 -0.0119 -0.0100
    1DPPC   C2B15622  15.196   5.044   5.374 -0.0523 -0.1962  0.2267
    1DPPC   C3B15623  14.983   4.917   5.731  0.1837 -0.2127 -0.0220
    1DPPC   C4B15624  14.925   4.644   5.971 -0.4239 -0.0590 -0.1524
    1DPPC   NC315625  14.745   6.006   3.781 -0.1144  0.1195 -0.3767
    1DPPC   PO415626  14.665   5.865   4.193 -0.0878 -0.0689  0.0017
    1DPPC   GL115627  14.721   5.835   4.596 -0.1700  0.0156 -0.0824
    1DPPC   GL215628  14.456   5.744   4.658 -0.0947  0.2327  0.1472
    1DPPC   C1A15629  15.007   5.869   4.913 -0.0620  0.0151  0.2058
    1DPPC   C2A15630  15.116   5.858   5.437 -0.2476 -0.0915  0.0293
    1DPPC   C3A15631  15.022   6.042   5.779 -0.0266  0.0397 -0.0455
    1DPPC   C4A15632  15.210   5.883   6.167  0.2710  0.0240 -0.0052
    1DPPC   C1B15633  14.420   5.811   5.088 -0.2544  0.1970 -0.3336
    1DPPC   C2B15634  14.595   5.969   5.304 -0.0842 -0.1236  0.0938
    1DPPC   C3B15635  14.529   6.023   5.659  0.1390 -0.4360  0.1701
    1DPPC   C4B15636  14.621   5.801   6.063  0.1296  0.2895  0.0185
    1DPPC   NC315637  21.040  12.720   2.413 -0.0963 -0.5283 -0.2290
    1DPPC   PO415638  21.422  13.143   2.479 -0.0860  0.0350 -0.0840
    1DPPC   GL115639  21.377  12.955   2.961  0.1678  0.0142 -0.0172
    1DPPC   GL215640  21.187  13.183   2.965  0.2066  0.3097  0.0699
    1DPPC   C1A15641  21.359  12.875   3.339 -0.0005  0.1741 -0.1173
    1DPPC   C2A15642  21.138  12.868   3.713  0.0604 -0.1366 -0.3061
    1DPPC   C3A15643  21.074  13.052   4.194  0.0399  0.0894  0.2694
    1DPPC   C4A15644  21.131  13.229   4.470 -0.0251  0.0515 -0.1559
    1DPPC   C1B15645  20.979  13.318   3.363  0.2487  0.1901  0.3377
    1DPPC   C2B15646  21.005  13.382   3.743  0.3954  0.2611  0.0515
    1DPPC   C3B15647  20.850  13.517   4.092 -0.0499  0.0735  0.2879
    1DPPC   C4B15648  20.775  13.629   4.559  0.1586  0.0387 -0.2323
    1DPPC   NC315649  13.024   7.021   3.627  0.1631  0.1247 -0.2591
    1DPPC   PO415650  13.251   6.643   3.771 -0.0944  0.0121  0.2753
    1DPPC   GL115651  13.021   6.784   4.148 -0.2294 -0.1447 -0.1699
    1DPPC   GL215652  13.205   7.115   4.160  0.2420 -0.1185  0.2562
    1DPPC   C1A15653  12.835   6.978   4.463 -0.1919 -0.1069  0.3098
    1DPPC   C2A15654  12.910   6.987   4.928 -0.0299  0.2172 -0.1372
    1DPPC   C3A15655  12.837   7.019   5.339  0.1968  0.0227 -0.2788
    1DPPC   C4A15656  13.008   7.258   5.559 -0.0552  0.0210  0.1075
    1DPPC   C1B15657  13.229   7.342   4.676  0.2263  0.2614  0.0628
    1DPPC   C2B15658  13.017   7.427   5.092 -0.0260 -0.1433  0.1745
    1DPPC   C3B15659  12.670   7.566   5.419  0.2028  0.1538 -0.1432
    1DPPC   C4B15660  12.526   7.368   5.840  0.0280  0.0637  0.0167
    1DPPC   NC315661  20.365  17.719   2.132 -0.0791  0.0979 -0.0138
    1DPPC   PO415662  20.638  18.002   2.009  0.0062  0.1690 -0.0096
    1DPPC   GL115663  20.878  18.115   2.320 -0.4072 -0.0159  0.2191
    1DPPC   GL215664  20.986  17.871   2.461 -0.1324  0.1692 -0.2006
    1DPPC   C1A15665  20.991  18.280   2.736  0.0780  0.0414 -0.0603
    1DPPC   C2A15666  20.924  18.205   3.044 -0.2019  0.1055 -0.3126
    1DPPC   C3A15667  21.143  18.134   3.504 -0.3412  0.1626  0.1640
    1DPPC   C4A15668  20.952  18.247   3.900 -0.2621 -0.1231 -0.1947
    1DPPC   C1B15669  21.330  17.970   2.807 -0.0789  0.0559 -0.3426
    1DPPC   C2B15670  21.281  17.643   3.194 -0.0544  0.2234 -0.1518
    1DPPC   C3B15671  21.039  17.621   3.464  0.0113  0.1837  0.0062
    1DPPC   C4B15672  20.896  17.329   3.825  0.2030  0.3582  0.3525
    1DPPC   NC315673  19.009   5.363   3.752  0.0932 -0.0745  0.0036
    1DPPC   PO415674  19.059   5.727   3.509 -0.2061  0.0204  0.1215
    1DPPC   GL115675  19.058   5.845   4.001  0.0956  0.0385 -0.0813
    1DPPC   GL215676  19.129   6.152   4.010  0.1918 -0.1828  0.0672
    1DPPC   C1A15677  19.106   5.762   4.432 -0.5102 -0.1596 -0.1425
    1DPPC   C2A15678  19.026   5.845   4.813  0.0938  0.1736  0.0514
    1DPPC   C3A15679  19.124   6.002   5.203  0.3134 -0.0974 -0.0945
    1DPPC   C4A15680  19.064   5.814   5.634 -0.1646  0.0378 -0.0661
    1DPPC   C1B15681  19.131   6.243   4.365  0.2345  0.1290  0.2245
    1DPPC   C2B15682  19.142   6.311   4.803  0.1552 -0.1999  0.2207
    1DPPC   C3B15683  19.306   6.428   5.244 -0.1742  0.1772  0.0145
    1DPPC   C4B15684  19.470   6.772   5.378  0.2142 -0.0677  0.1432
    1DPPC   NC315685  10.884   6.661   3.608  0.1196 -0.2739 -0.0934
    1DPPC   PO415686  11.256   6.629   3.362  0.2001 -0.0410  0.2197
    1DPPC   GL115687  11.336   6.771   3.851 -0.1570  0.1811  0.1507
    1DPPC   GL215688  11.085   6.657   4.058  0.0626  0.1610  0.0032
    1DPPC   C1A15689  11.406   7.062   4.118  0.3589 -0.1440 -0.0498
    1DPPC   C2A15690  11.302   7.127   4.504 -0.0439 -0.0564  0.0909
    1DPPC   C3A15691  11.231   7.057   4.817  0.1626  0.1920 -0.0104
    1DPPC   C4A15692  11.164   7.375   5.178  0.1250  0.2264  0.0706
    1DPPC   C1B15693  10.934   6.766   4.442  0.0498  0.0926  0.1350
    1DPPC   C2B15694  10.915   6.674   4.907 -0.2020  0.1859  0.1235
    1DPPC   C3B15695  10.893   6.282   5.022  0.0199  0.0856  0.0189
    1DPPC   C4B15696  10.498   5.994   4.918 -0.3178 -0.1091  0.0926
    1DPPC   NC315697  28.108  16.435   3.254  0.0925  0.0352  0.1526
    1DPPC   PO415698  28.327  16.106   3.274 -0.0641 -0.1282 -0.2938
    1DPPC   GL115699  28.162  16.214   3.663  0.3720  0.2075 -0.2720
    1DPPC   GL215700  27.832  16.174   3.546 -0.1536  0.0930  0.0706
    1DPPC   C1A15701  28.144  16.218   4.064  0.4851  0.3658  0.1186
    1DPPC   C2A15702  27.908  16.212   4.347 -0.0253  0.1682  0.0694
    1DPPC   C3A15703  27.463  16.435   4.551  0.2098  0.0190  0.1669
    1DPPC   C4A15704  27.216  16.731   4.683 -0.0909  0.1634 -0.1837
    1DPPC   C1B15705  27.626  16.223   3.878 -0.0581  0.0723 -0.2067
    1DPPC   C2B15706  27.403  15.967   4.259 -0.2001 -0.1399 -0.1221
    1DPPC   C3B15707  27.216  15.993   4.666 -0.1304  0.0559 -0.4298
    1DPPC   C4B15708  27.506  16.131   4.951  0.1999 -0.2356 -0.0841
    1DPPC   NC315709  26.854  13.058   2.898 -0.2624 -0.0767  0.1295
    1DPPC   PO415710  27.307  12.844   2.897 -0.1848  0.1294 -0.0054
    1DPPC   GL115711  27.424  12.414   3.222  0.0941  0.4156  0.0448
    1DPPC   GL215712  27.148  12.124   3.084  0.0140 -0.3150 -0.0524
    1DPPC   C1A15713  27.356  12.265   3.527 -0.0397  0.1504 -0.0525
    1DPPC   C2A15714  27.439  12.123   3.985  0.4523 -0.3000 -0.0402
    1DPPC   C3A15715  27.515  12.004   4.357 -0.0423 -0.1122 -0.3106
    1DPPC   C4A15716  27.589  11.907   4.805 -0.3184  0.2080  0.2087
    1DPPC   C1B15717  26.822  12.232   3.505  0.1578  0.2000  0.1147
    1DPPC   C2B15718  26.942  12.110   3.826  0.0528  0.1734  0.3425
    1DPPC   C3B15719  26.954  12.000   4.261 -0.1163  0.1467  0.2262
    1DPPC   C4B15720  27.117  11.850   4.634 -0.2597  0.0231 -0.2909
    1DPPC   NC315721  25.829  11.293   2.214  0.0019 -0.0989 -0.2784
    1DPPC   PO415722  25.739  11.475   2.658 -0.3150 -0.0750  0.0696
    1DPPC   GL115723  25.502  11.435   3.048  0.0370  0.0885 -0.0466
    1DPPC   GL215724  25.687  11.492   3.259 -0.0402 -0.1450  0.1189
    1DPPC   C1A15725  25.187  11.336   3.357  0.0836 -0.1406  0.3757
    1DPPC   C2A15726  25.246  11.199   3.835  0.0016 -0.4281 -0.0984
    1DPPC   C3A15727  25.329  11.179   4.197  0.0817 -0.1051  0.2703
    1DPPC   C4A15728  25.401  11.531   4.510 -0.1758 -0.2636 -0.1361
    1DPPC   C1B15729  25.672  11.506   3.620 -0.0177  0.0729  0.1107
    1DPPC   C2B15730  25.675  11.497   4.074 -0.0643 -0.0125 -0.0842
    1DPPC   C3B15731  25.866  11.360   4.501  0.1417 -0.3117 -0.1517
    1DPPC   C4B15732  25.935  10.947   4.657  0.0420 -0.1484  0.0747
    1DPPC   NC315733  20.076  13.568   2.685  0.0354 -0.0639 -0.3561
    1DPPC   PO415734  20.072  13.084   2.724 -0.0492 -0.2024 -0.0876
    1DPPC   GL115735  19.862  13.366   3.147  0.0640 -0.1032  0.0195
    1DPPC   GL215736  19.555  13.221   3.224 -0.0867 -0.0403  0.0773
    1DPPC   C1A15737  20.120  13.421   3.493  0.2357  0.0030 -0.1174
    1DPPC   C2A15738  20.119  13.564   3.917 -0.0240 -0.1028 -0.0407
    1DPPC   C3A15739  20.178  13.777   4.257  0.3560  0.0350  0.1938
    1DPPC   C4A15740  19.960  14.115   4.506  0.0983 -0.0239 -0.0794
    1DPPC   C1B15741  19.641  13.318   3.621 -0.4739 -0.2692  0.1463
    1DPPC   C2B15742  19.670  13.460   4.029  0.0193 -0.0423  0.1684
    1DPPC   C3B15743  19.590  13.676   4.238  0.2399  0.0120 -0.2713
    1DPPC   C4B15744  19.389  13.722   4.571 -0.1828 -0.3471  0.0443
    1DPPC   NC315745  29.069   5.129   2.961  0.1684  0.0674 -0.2564
    1DPPC   PO415746  28.647   5.288   2.942 -0.0769 -0.2627  0.3192
    1DPPC   GL115747  28.587   5.588   3.231 -0.2266 -0.1388 -0.0224
    1DPPC   GL215748  28.475   5.857   3.193 -0.0291 -0.1961 -0.0623
    1DPPC   C1A15749  28.711   5.751   3.602  0.1083 -0.1565 -0.1445
    1DPPC   C2A15750  28.975   5.920   3.962 -0.1822 -0.3059  0.1973
    1DPPC   C3A15751  28.880   5.962   4.408 -0.0067 -0.1528 -0.2233
    1DPPC   C4A15752  28.816   6.061   4.820  0.0874 -0.2285  0.2623
    1DPPC   C1B15753  28.198   5.868   3.457 -0.1829 -0.1843 -0.2557
    1DPPC   C2B15754  27.997   5.937   3.887 -0.1780 -0.2739 -0.0354
    1DPPC   C3B15755  28.046   6.094   4.240 -0.1762 -0.2266 -0.1026
    1DPPC   C4B15756  28.359   6.151   4.597 -0.0582 -0.0182  0.2495
    1DPPC   NC315757  17.243   8.402   3.166  0.1759 -0.0278  0.1726
    1DPPC   PO415758  16.855   8.694   3.348  0.0159  0.0477 -0.2362
    1DPPC   GL115759  16.555   8.856   3.610 -0.4309 -0.2635 -0.1963
    1DPPC   GL215760  16.673   9.184   3.549  0.1112  0.1431 -0.0760
    1DPPC   C1A15761  16.402   8.806   3.930 -0.1061  0.1973  0.3230
    1DPPC   C2A15762  16.397   8.863   4.330  0.1410 -0.1447 -0.1541
    1DPPC   C3A15763  16.387   8.962   4.686 -0.1301  0.1886 -0.0704
    1DPPC   C4A15764  16.423   8.807   5.067  0.0813  0.0297  0.0339
    1DPPC   C1B15765  16.593   9.327   3.954  0.3889  0.0926 -0.1505
    1DPPC   C2B15766  16.435   9.348   4.330 -0.1236  0.0006  0.0407
    1DPPC   C3B15767  16.364   9.422   4.745 -0.4294 -0.0187  0.0516
    1DPPC   C4B15768  16.397   9.432   5.129 -0.0386 -0.0959  0.0561
    1DPPC   NC315769  23.544   9.881   2.623  0.0892  0.1812 -0.1697
    1DPPC   PO415770  23.449  10.106   2.242 -0.1180 -0.3089 -0.1280
    1DPPC   GL115771  23.541  10.373   2.681 -0.0569 -0.2107  0.3292
    1DPPC   GL215772  23.425  10.617   2.858 -0.1112  0.1000  0.1946
    1DPPC   C1A15773  23.880  10.532   2.971  0.0910  0.1440  0.2661
    1DPPC   C2A15774  24.125  10.525   3.372 -0.1830  0.0493  0.0198
    1DPPC   C3A15775  24.407  10.342   3.420 -0.3100 -0.0314 -0.0341
    1DPPC   C4A15776  24.710  10.429   3.754 -0.0345 -0.0049  0.0316
    1DPPC   C1B15777  23.511  10.463   3.308 -0.2617 -0.0486 -0.1012
    1DPPC   C2B15778  23.709  10.347   3.553 -0.1684 -0.2065 -0.0944
    1DPPC   C3B15779  24.133  10.405   3.835  0.1794  0.1981  0.0822
    1DPPC   C4B15780  24.406  10.132   4.162 -0.0989 -0.1563  0.0012
    1DPPC   NC315781   5.404  19.428   2.580 -0.0946 -0.1305  0.0350
    1DPPC   PO415782   5.272  19.157   2.984 -0.1105  0.0560  0.0597
    1DPPC   GL115783   5.489  19.152   3.389 -0.3198 -0.0171  0.0832
    1DPPC   GL215784   5.312  18.971   3.678  0.1894 -0.1198 -0.1274
    1DPPC   C1A15785   5.360  19.492   3.632 -0.4966 -0.3329 -0.1608
    1DPPC   C2A15786   5.341  19.904   3.798  0.1574  0.2114 -0.1178
    1DPPC   C3A15787   5.120  20.147   4.138  0.1190 -0.0286 -0.0887
    1DPPC   C4A15788   5.121  20.609   4.310 -0.0272 -0.0292  0.0130
    1DPPC   C1B15789   5.698  18.928   3.982 -0.0759  0.2079 -0.0248
    1DPPC   C2B15790   6.092  18.770   4.085  0.1548  0.0091  0.3475
    1DPPC   C3B15791   6.548  18.795   4.053 -0.0721  0.0569  0.0253
    1DPPC   C4B15792   6.793  19.204   4.120 -0.3183 -0.1291  0.1112
    1DPPC   NC315793  18.668   0.284   3.953 -0.3241  0.0389 -0.0090
    1DPPC   PO415794  18.588  29.750   4.070  0.0877 -0.0084 -0.0190
    1DPPC   GL115795  18.771  29.786   4.467  0.1140 -0.0709 -0.1786
    1DPPC   GL215796  18.615   0.300   4.450  0.0408 -0.1272  0.0838
    1DPPC   C1A15797  18.938  29.714   4.781  0.2735  0.0766  0.0261
    1DPPC   C2A15798  19.227  29.331   4.894 -0.3108  0.0468  0.0337
    1DPPC   C3A15799  19.552  29.040   4.790 -0.0126 -0.0830  0.0413
    1DPPC   C4A15800  19.924  28.935   5.007  0.1472  0.0197  0.0550
    1DPPC   C1B15801  18.735   0.414   4.863  0.1457  0.1333 -0.0358
    1DPPC   C2B15802  18.918   0.318   5.197 -0.1945 -0.0601 -0.1027
    1DPPC   C3B15803  18.986  29.828   5.306 -0.1422 -0.1493 -0.3560
    1DPPC   C4B15804  18.617  29.693   5.666  0.2770  0.1975 -0.0100
    1DPPC   NC315805  24.002  13.665   2.664  0.1316  0.1265 -0.3800
    1DPPC   PO415806  24.240  14.044   2.892  0.1132 -0.2272  0.1053
    1DPPC   GL115807  24.473  13.898   3.202  0.1535 -0.0278  0.1610
    1DPPC   GL215808  24.780  13.796   3.180 -0.0628 -0.2743 -0.1387
    1DPPC   C1A15809  24.507  13.965   3.697 -0.0280 -0.4375 -0.1101
    1DPPC   C2A15810  24.458  13.938   4.143  0.0838  0.1191 -0.1241
    1DPPC   C3A15811  24.341  14.101   4.530  0.2573  0.1448  0.0997
    1DPPC   C4A15812  24.399  14.515   4.613 -0.0114  0.0924  0.0379
    1DPPC   C1B15813  24.919  13.732   3.569 -0.2784 -0.1226  0.1231
    1DPPC   C2B15814  24.942  13.790   3.998  0.3530  0.0367  0.1267
    1DPPC   C3B15815  24.904  13.796   4.370  0.2786  0.2741  0.0643
    1DPPC   C4B15816  24.707  13.943   4.856  0.1355  0.0401 -0.0195
    1DPPC   NC315817  20.463   9.542   2.840 -0.3056  0.2901  0.2673
    1DPPC   PO415818  20.113   9.329   3.071  0.2096 -0.1612  0.3108
    1DPPC   GL115819  19.981   9.511   3.439 -0.3061 -0.0612 -0.1929
    1DPPC   GL215820  20.259   9.695   3.564  0.0666  0.0085  0.0208
    1DPPC   C1A15821  19.862   9.721   3.859  0.0361 -0.0492 -0.0017
    1DPPC   C2A15822  20.021   9.683   4.294 -0.0931 -0.0138  0.1931
    1DPPC   C3A15823  20.102   9.511   4.781 -0.1809  0.0843  0.1745
    1DPPC   C4A15824  19.814   9.302   5.140 -0.2761 -0.0890 -0.1074
    1DPPC   C1B15825  20.392   9.783   4.032 -0.0847 -0.0549  0.0088
    1DPPC   C2B15826  20.478   9.684   4.449 -0.1430 -0.0351  0.0047
    1DPPC   C3B15827  20.523   9.846   4.767  0.1839  0.0853  0.0595
    1DPPC   C4B15828  20.857   9.856   5.143  0.0793  0.0465  0.1006
    1DPPC   NC315829   5.677   9.979   2.395  0.2641  0.1759  0.1466
    1DPPC   PO415830   6.047   9.856   2.723  0.1176 -0.1746 -0.4775
    1DPPC   GL115831   6.056   9.749   3.129  0.0750 -0.0057 -0.3072
    1DPPC   GL215832   5.819   9.478   3.284  0.0926 -0.2046 -0.2078
    1DPPC   C1A15833   6.181   9.978   3.478 -0.0492  0.0673  0.0280
    1DPPC   C2A15834   6.317  10.015   3.947 -0.2143  0.1638 -0.1060
    1DPPC   C3A15835   6.231   9.927   4.379 -0.1139  0.2234 -0.0489
    1DPPC   C4A15836   6.368   9.925   4.762  0.2437  0.3037 -0.0397
    1DPPC   C1B15837   5.873   9.518   3.667 -0.2804  0.2071 -0.2487
    1DPPC   C2B15838   5.930   9.386   4.021 -0.1810 -0.2488  0.1187
    1DPPC   C3B15839   6.033   9.368   4.359  0.0399 -0.0509 -0.0901
    1DPPC   C4B15840   5.769   9.175   4.693  0.0840  0.0874 -0.0357
    1DPPC   NC315841  19.027  15.516   1.970 -0.0079 -0.2019 -0.0384
    1DPPC   PO415842  19.010  15.751   2.334 -0.1304 -0.4131  0.0226
    1DPPC   GL115843  19.093  16.121   2.542 -0.2507  0.2165 -0.2470
    1DPPC   GL215844  19.195  16.390   2.288 -0.4227  0.3426 -0.1103
    1DPPC   C1A15845  18.946  16.263   2.909 -0.1505 -0.1077 -0.4200
    1DPPC   C2A15846  18.971  16.348   3.376 -0.0272  0.1553 -0.0450
    1DPPC   C3A15847  18.893  16.331   3.859  0.1132  0.0704  0.0233
    1DPPC   C4A15848  18.640  15.996   4.127  0.1522  0.1372 -0.3430
    1DPPC   C1B15849  19.307  16.638   2.632  0.0903  0.1045 -0.0755
    1DPPC   C2B15850  19.376  16.695   3.041 -0.0709  0.3822  0.3101
    1DPPC   C3B15851  19.473  16.478   3.362 -0.1075 -0.0857  0.0486
    1DPPC   C4B15852  19.272  16.623   3.659 -0.0264  0.0163  0.0024
    1DPPC   NC315853  19.313   3.391   3.911 -0.0770  0.3968 -0.1666
    1DPPC   PO415854  19.181   3.273   4.277 -0.1178 -0.2436 -0.1855
    1DPPC   GL115855  19.216   3.117   4.539 -0.0799 -0.2725 -0.1534
    1DPPC   GL215856  19.123   3.342   4.759 -0.0780  0.2904 -0.0608
    1DPPC   C1A15857  19.265   2.895   4.912  0.1165 -0.0574  0.0393
    1DPPC   C2A15858  19.396   2.799   5.303  0.4333 -0.1684  0.2722
    1DPPC   C3A15859  19.467   2.785   5.806  0.0412  0.0662 -0.1791
    1DPPC   C4A15860  19.297   2.749   6.154 -0.1854 -0.0476 -0.3416
    1DPPC   C1B15861  18.974   3.347   5.148  0.0276  0.1677 -0.1362
    1DPPC   C2B15862  18.852   3.285   5.612  0.1704  0.3029  0.0411
    1DPPC   C3B15863  18.918   3.041   5.981 -0.1402 -0.3727 -0.5427
    1DPPC   C4B15864  18.965   3.022   6.448 -0.2479  0.0137 -0.3596
    1DPPC   NC315865  17.956  11.128   2.771 -0.0163  0.1862  0.1500
    1DPPC   PO415866  17.536  11.025   2.586 -0.1174  0.1387 -0.3335
    1DPPC   GL115867  17.465  10.923   2.997 -0.0797 -0.1323 -0.1080
    1DPPC   GL215868  17.711  10.944   3.307  0.2457 -0.1404 -0.0752
    1DPPC   C1A15869  17.224  10.950   3.389 -0.1589  0.4063  0.0397
    1DPPC   C2A15870  17.282  11.174   3.830  0.0184 -0.1245 -0.0398
    1DPPC   C3A15871  17.193  11.138   4.179 -0.0811  0.0323 -0.4247
    1DPPC   C4A15872  17.280  11.289   4.589 -0.0840  0.3527  0.2756
    1DPPC   C1B15873  17.822  10.995   3.777 -0.2795  0.2427  0.2131
    1DPPC   C2B15874  17.775  11.172   4.098 -0.0242  0.1218 -0.0191
    1DPPC   C3B15875  17.739  11.240   4.448 -0.1224  0.0393 -0.2563
    1DPPC   C4B15876  17.849  11.095   4.745 -0.0157  0.1111 -0.1937
    1DPPC   NC315877  19.505   7.674   2.646  0.0920  0.1697  0.0880
    1DPPC   PO415878  19.295   7.715   3.149 -0.3931  0.2064  0.0845
    1DPPC   GL115879  19.441   7.804   3.686  0.0377 -0.2038 -0.1973
    1DPPC   GL215880  19.395   7.440   3.878  0.1512  0.0953 -0.1142
    1DPPC   C1A15881  19.309   7.982   4.044  0.3375  0.0937 -0.0951
    1DPPC   C2A15882  19.005   8.247   4.126  0.2184  0.0750  0.1628
    1DPPC   C3A15883  18.713   8.512   4.041  0.2590 -0.0992 -0.1804
    1DPPC   C4A15884  18.440   8.769   3.890  0.0345 -0.1644 -0.0709
    1DPPC   C1B15885  19.415   7.388   4.290  0.0660 -0.0225  0.2017
    1DPPC   C2B15886  19.382   7.334   4.756 -0.1485 -0.0715 -0.1751
    1DPPC   C3B15887  19.289   7.273   5.149  0.1047  0.2152  0.0576
    1DPPC   C4B15888  19.382   7.180   5.657  0.0048 -0.1347  0.0812
    1DPPC   NC315889  18.101  15.933   1.943 -0.2547  0.4029 -0.1078
    1DPPC   PO415890  18.428  15.669   2.347 -0.1483  0.2561 -0.0104
    1DPPC   GL115891  18.729  15.409   2.594  0.2444 -0.1926 -0.0638
    1DPPC   GL215892  18.632  15.093   2.681  0.0949 -0.4041  0.1241
    1DPPC   C1A15893  18.982  15.397   2.907  0.1136 -0.0459  0.1710
    1DPPC   C2A15894  19.127  15.426   3.407 -0.0984  0.2768  0.0968
    1DPPC   C3A15895  19.420  15.474   3.750  0.1305  0.0846 -0.1643
    1DPPC   C4A15896  19.302  15.451   4.222 -0.0410  0.1489  0.1115
    1DPPC   C1B15897  18.563  15.030   3.094  0.1882 -0.0513 -0.0382
    1DPPC   C2B15898  18.723  15.095   3.431  0.0302  0.1936 -0.0156
    1DPPC   C3B15899  18.896  15.309   3.806  0.1657  0.0461  0.2383
    1DPPC   C4B15900  18.743  15.529   4.259  0.0674  0.0666  0.0782
    1DPPC   NC315901  24.473   6.363   3.860  0.1067  0.2048 -0.0727
    1DPPC   PO415902  24.581   5.970   3.881  0.3067  0.2791  0.2065
    1DPPC   GL115903  24.589   6.094   4.269  0.2853  0.0053  0.0703
    1DPPC   GL215904  24.659   6.267   4.365 -0.2151 -0.0317 -0.1115
    1DPPC   C1A15905  24.410   5.828   4.590  0.0658 -0.0784  0.3628
    1DPPC   C2A15906  24.524   5.468   4.831  0.2259  0.2861 -0.0300
    1DPPC   C3A15907  24.583   5.009   4.875  0.2367  0.0891  0.1486
    1DPPC   C4A15908  24.926   4.813   5.006  0.2355 -0.0722 -0.0719
    1DPPC   C1B15909  24.604   6.174   4.888  0.2336 -0.0499  0.3298
    1DPPC   C2B15910  24.725   6.336   5.242 -0.1311 -0.2044 -0.1507
    1DPPC   C3B15911  24.755   6.649   5.476 -0.0489  0.2693 -0.0776
    1DPPC   C4B15912  25.067   6.873   5.350  0.1618  0.0225  0.0361
    1DPPC   NC315913  21.843   5.747   3.210  0.0567  0.0732  0.1382
    1DPPC   PO415914  21.926   5.826   3.737 -0.0586 -0.0238 -0.0498
    1DPPC   GL115915  22.229   5.841   4.168  0.1592 -0.0521  0.3329
    1DPPC   GL215916  22.167   6.140   4.234 -0.0917  0.0775  0.2206
    1DPPC   C1A15917  22.318   5.649   4.647  0.2660  0.0738 -0.0642
    1DPPC   C2A15918  22.467   5.972   4.986  0.0567  0.0601  0.0817
    1DPPC   C3A15919  22.348   6.040   5.268 -0.1323  0.1919 -0.2673
    1DPPC   C4A15920  22.467   6.179   5.640  0.0276  0.0355  0.0749
    1DPPC   C1B15921  22.288   6.274   4.615 -0.0867 -0.4052 -0.1586
    1DPPC   C2B15922  22.382   6.608   4.879 -0.0760 -0.0098  0.0209
    1DPPC   C3B15923  22.467   6.641   5.260 -0.0838  0.0878  0.1825
    1DPPC   C4B15924  22.716   6.622   5.623 -0.0555  0.0995  0.2432
    1DPPC   NC315925  20.110  10.189   2.340 -0.2204 -0.2209 -0.1032
    1DPPC   PO415926  20.124  10.347   2.800 -0.2941  0.2537 -0.2191
    1DPPC   GL115927  20.234  10.580   3.215  0.1994 -0.0462 -0.3360
    1DPPC   GL215928  20.491  10.687   3.285 -0.3124  0.0632 -0.1746
    1DPPC   C1A15929  20.004  10.743   3.568 -0.1569  0.0713 -0.2711
    1DPPC   C2A15930  19.969  10.843   4.029  0.0114  0.0607  0.0143
    1DPPC   C3A15931  19.885  10.894   4.420  0.0635 -0.2404 -0.2051
    1DPPC   C4A15932  19.863  10.866   4.812  0.1601  0.3266 -0.2147
    1DPPC   C1B15933  20.470  10.590   3.710 -0.2028 -0.0641  0.0246
    1DPPC   C2B15934  20.380  10.607   4.161  0.0948  0.0869  0.2087
    1DPPC   C3B15935  20.329  10.531   4.675 -0.2283 -0.0661  0.2082
    1DPPC   C4B15936  20.113  10.477   5.065  0.0045 -0.0772  0.1428
    1DPPC   NC315937  18.191   0.053   3.889  0.1545  0.0658 -0.0492
    1DPPC   PO415938  17.805   0.331   3.853 -0.1196 -0.1427 -0.0685
    1DPPC   GL115939  17.768   0.413   4.313  0.0492 -0.3871 -0.0628
    1DPPC   GL215940  17.533   0.153   4.308 -0.0439  0.0732 -0.0037
    1DPPC   C1A15941  17.830   0.390   4.740 -0.0871  0.3529  0.2687
    1DPPC   C2A15942  17.652   0.755   4.997 -0.2532 -0.2109 -0.0351
    1DPPC   C3A15943  17.593   0.802   5.393 -0.1036  0.0233 -0.4334
    1DPPC   C4A15944  17.780   0.943   5.723 -0.1043 -0.1117 -0.2445
    1DPPC   C1B15945  17.519  29.853   4.691  0.0453 -0.0716 -0.2742
    1DPPC   C2B15946  17.771   0.035   5.064 -0.0678 -0.0761  0.0828
    1DPPC   C3B15947  17.901  29.662   5.354  0.0702  0.0431 -0.0486
    1DPPC   C4B15948  17.899  29.330   5.706 -0.0665  0.0621 -0.0916
    1DPPC   NC315949  12.041   8.122   3.400 -0.1698 -0.0920  0.1422
    1DPPC   PO415950  11.698   8.375   3.289 -0.3586  0.0310  0.0542
    1DPPC   GL115951  11.942   8.620   3.632  0.1017  0.1937 -0.0859
    1DPPC   GL215952  12.229   8.755   3.755 -0.1199  0.1892 -0.0213
    1DPPC   C1A15953  11.856   8.758   4.070 -0.1253 -0.1432  0.1581
    1DPPC   C2A15954  11.897   8.923   4.435  0.1569  0.0465  0.1129
    1DPPC   C3A15955  12.171   8.873   4.694 -0.1525  0.2427 -0.0257
    1DPPC   C4A15956  12.376   8.903   5.103 -0.3040 -0.0757  0.1366
    1DPPC   C1B15957  12.298   8.970   4.136 -0.1639 -0.2877  0.1337
    1DPPC   C2B15958  12.637   9.062   4.583 -0.0703 -0.0109  0.0898
    1DPPC   C3B15959  12.833   9.213   5.014 -0.1854 -0.1578  0.2531
    1DPPC   C4B15960  12.641   9.322   5.315  0.2993  0.1898 -0.3781
    1DPPC   NC315961  23.673  15.587   1.889 -0.3058 -0.3781  0.2007
    1DPPC   PO415962  23.317  15.554   2.161  0.0758 -0.0096  0.0465
    1DPPC   GL115963  23.228  15.494   2.587  0.1268 -0.0684 -0.1644
    1DPPC   GL215964  22.993  15.302   2.662  0.1718  0.4343 -0.0088
    1DPPC   C1A15965  23.290  15.403   3.031  0.3278 -0.3784  0.3041
    1DPPC   C2A15966  23.209  15.518   3.449 -0.0987 -0.0306 -0.0196
    1DPPC   C3A15967  23.105  15.714   3.856  0.0858 -0.0279  0.0337
    1DPPC   C4A15968  22.931  16.093   3.975  0.0146  0.1086 -0.1461
    1DPPC   C1B15969  22.813  15.285   3.033 -0.0579 -0.1305  0.0135
    1DPPC   C2B15970  22.722  15.479   3.394 -0.2104 -0.1723 -0.3074
    1DPPC   C3B15971  22.647  15.435   3.847 -0.0727  0.2927  0.0484
    1DPPC   C4B15972  22.763  15.651   4.242  0.0162 -0.1804  0.2667
    1DPPC   NC315973  15.070   4.698   3.951  0.0031 -0.5099  0.3773
    1DPPC   PO415974  14.879   4.378   4.292  0.1253  0.0543  0.2294
    1DPPC   GL115975  15.013   4.335   4.725 -0.1659  0.3087  0.0538
    1DPPC   GL215976  14.713   4.285   4.818 -0.1926  0.2553 -0.0362
    1DPPC   C1A15977  15.230   4.390   5.070 -0.1503 -0.2192 -0.1524
    1DPPC   C2A15978  15.244   4.371   5.462  0.2771 -0.0394  0.0752
    1DPPC   C3A15979  15.383   4.202   5.887  0.1815 -0.2699  0.2156
    1DPPC   C4A15980  15.579   3.947   6.204  0.0353  0.1852 -0.0234
    1DPPC   C1B15981  14.483   4.301   5.044  0.0683 -0.0799 -0.0690
    1DPPC   C2B15982  14.372   4.243   5.405 -0.1775 -0.0497 -0.2558
    1DPPC   C3B15983  14.145   3.913   5.752  0.1189  0.0981 -0.2345
    1DPPC   C4B15984  14.357   3.681   6.056 -0.2697 -0.2978  0.0415
    1DPPC   NC315985  21.126  10.847   2.604 -0.3147  0.1415 -0.2378
    1DPPC   PO415986  21.463  10.646   2.721  0.0019 -0.0209 -0.4519
    1DPPC   GL115987  21.510  10.632   3.085  0.1645  0.1002  0.1404
    1DPPC   GL215988  21.615  10.407   3.243 -0.1227 -0.0116  0.2298
    1DPPC   C1A15989  21.351  10.800   3.391 -0.1627  0.0812  0.0743
    1DPPC   C2A15990  21.395  10.823   3.896  0.1660  0.1230 -0.0653
    1DPPC   C3A15991  21.499  10.960   4.285  0.0384 -0.1366 -0.1374
    1DPPC   C4A15992  21.511  11.211   4.594  0.2108  0.2792 -0.0566
    1DPPC   C1B15993  21.615  10.370   3.667  0.1093  0.2530 -0.2554
    1DPPC   C2B15994  21.601  10.443   4.144  0.0892 -0.0948 -0.1470
    1DPPC   C3B15995  21.632  10.532   4.494  0.0346  0.2222 -0.0015
    1DPPC   C4B15996  21.756  10.816   4.806  0.0262 -0.0005  0.1086
    1DPPC   NC315997  14.141   4.929   4.242 -0.5201  0.0844 -0.0768
    1DPPC   PO415998  13.828   4.739   4.287 -0.0935 -0.1256 -0.0215
    1DPPC   GL115999  13.440   4.857   4.597  0.0016 -0.1740 -0.1084
    1DPPC   GL216000  13.300   5.017   4.921  0.3440  0.0169  0.1202
    1DPPC   C1A16001  13.518   4.634   5.022 -0.1264  0.1476  0.0542
    1DPPC   C2A16002  13.581   4.734   5.464 -0.1344 -0.2492  0.0055
    1DPPC   C3A16003  13.626   4.795   5.838  0.1136 -0.1561 -0.1533
    1DPPC   C4A16004  13.364   4.703   6.155  0.1572 -0.0516 -0.0812
    1DPPC   C1B16005  13.212   5.081   5.295  0.3874 -0.1277 -0.0313
    1DPPC   C2B16006  13.175   5.107   5.753  0.1670  0.1344 -0.2464
    1DPPC   C3B16007  12.875   4.848   5.993  0.1128 -0.1853 -0.0373
    1DPPC   C4B16008  12.895   4.308   6.050 -0.2612  0.1067 -0.0453
    1DPPC   NC316009  25.358  11.852   2.600 -0.0771  0.0336  0.2005
    1DPPC   PO416010  25.513  12.259   2.520 -0.1715  0.3237  0.2143
    1DPPC   GL116011  25.575  12.253   2.973  0.1860  0.0027 -0.0268
    1DPPC   GL216012  25.627  12.562   3.190 -0.0531  0.0362 -0.0788
    1DPPC   C1A16013  25.782  12.109   3.363  0.0079 -0.3521 -0.0099
    1DPPC   C2A16014  25.775  11.963   3.772  0.0998 -0.1928 -0.2129
    1DPPC   C3A16015  25.888  11.961   4.127  0.0818  0.0490  0.0662
    1DPPC   C4A16016  26.211  11.797   4.569 -0.0294  0.1926 -0.0826
    1DPPC   C1B16017  25.612  12.532   3.676  0.3492 -0.0070 -0.0807
    1DPPC   C2B16018  25.621  12.386   4.085 -0.2962 -0.2116  0.0422
    1DPPC   C3B16019  25.794  12.641   4.439  0.0005 -0.0812 -0.1019
    1DPPC   C4B16020  25.669  12.796   4.850 -0.1823 -0.2370 -0.0887
    1DPPC   NC316021  26.661  16.321   2.708 -0.0561  0.0924  0.0736
    1DPPC   PO416022  26.352  16.037   2.940 -0.0441  0.1204 -0.1186
    1DPPC   GL116023  26.421  15.782   3.284  0.3051  0.0269  0.0145
    1DPPC   GL216024  26.119  15.536   3.216 -0.0797  0.2640 -0.1671
    1DPPC   C1A16025  26.455  15.647   3.767  0.0793  0.4922  0.0749
    1DPPC   C2A16026  26.450  15.693   4.164 -0.1566  0.0153 -0.1292
    1DPPC   C3A16027  26.553  15.556   4.634  0.2086 -0.1631 -0.0302
    1DPPC   C4A16028  26.345  15.831   4.983  0.0898 -0.1561 -0.1172
    1DPPC   C1B16029  25.950  15.469   3.624 -0.2860  0.0859  0.0979
    1DPPC   C2B16030  25.988  15.525   4.046 -0.1316 -0.2737 -0.1219
    1DPPC   C3B16031  26.056  15.732   4.432  0.4806 -0.0585  0.0085
    1DPPC   C4B16032  25.886  15.978   4.772 -0.2495  0.0012 -0.1149
    1DPPC   NC316033  19.609  16.080   2.327 -0.1879 -0.2358 -0.2415
    1DPPC   PO416034  19.536  15.629   2.201  0.2227 -0.0246 -0.0887
    1DPPC   GL116035  19.387  15.658   2.611 -0.0538 -0.2461 -0.1950
    1DPPC   GL216036  19.743  15.690   2.673  0.1046 -0.0870  0.4377
    1DPPC   C1A16037  19.211  15.803   3.023  0.0185 -0.2001 -0.1082
    1DPPC   C2A16038  19.364  15.905   3.513  0.2790  0.2206 -0.1673
    1DPPC   C3A16039  19.408  16.185   3.832 -0.0032 -0.2873 -0.2261
    1DPPC   C4A16040  19.274  16.274   4.191  0.0280 -0.4362 -0.0620
    1DPPC   C1B16041  19.625  16.014   3.036  0.2820  0.2093  0.1285
    1DPPC   C2B16042  19.805  16.198   3.513 -0.0040  0.0362  0.1971
    1DPPC   C3B16043  19.843  15.991   3.903  0.2398  0.1010  0.0263
    1DPPC   C4B16044  19.607  15.844   4.238  0.0996  0.0140  0.3093
    1DPPC   NC316045  25.461  13.517   2.718  0.0781 -0.3165 -0.1595
    1DPPC   PO416046  25.698  13.762   2.898  0.0752 -0.0471  0.0897
    1DPPC   GL116047  25.600  14.070   3.185  0.0107  0.0718 -0.1461
    1DPPC   GL216048  25.726  14.342   3.182  0.0701  0.0856  0.0628
    1DPPC   C1A16049  25.283  14.147   3.441 -0.0633 -0.0806  0.0065
    1DPPC   C2A16050  25.302  14.182   3.801 -0.3578 -0.2121 -0.0943
    1DPPC   C3A16051  25.279  14.218   4.237  0.0565  0.0536 -0.2542
    1DPPC   C4A16052  25.276  14.109   4.606  0.0798  0.1302 -0.2833
    1DPPC   C1B16053  25.686  14.517   3.601  0.0773  0.0252  0.0539
    1DPPC   C2B16054  25.594  14.489   4.000  0.1167 -0.0044  0.0767
    1DPPC   C3B16055  25.678  14.415   4.451 -0.1273  0.1328 -0.0599
    1DPPC   C4B16056  25.666  14.293   4.867 -0.3609  0.0526  0.2583
    1DPPC   NC316057  19.136  13.503   2.564 -0.0882 -0.3359 -0.1999
    1DPPC   PO416058  19.389  13.843   2.474  0.0779 -0.0423  0.1388
    1DPPC   GL116059  19.063  13.994   2.810 -0.0462 -0.1706  0.2490
    1DPPC   GL216060  18.821  13.774   2.827 -0.1301 -0.0507  0.0158
    1DPPC   C1A16061  18.880  14.326   2.908  0.0936  0.0449  0.2049
    1DPPC   C2A16062  18.782  14.609   3.220 -0.1677 -0.3727 -0.0628
    1DPPC   C3A16063  18.890  14.629   3.657  0.0700 -0.0512  0.1995
    1DPPC   C4A16064  18.826  14.833   4.017 -0.0694  0.1596  0.0989
    1DPPC   C1B16065  18.786  13.812   3.248  0.1309  0.1251  0.0172
    1DPPC   C2B16066  18.759  13.487   3.626 -0.2804 -0.2669 -0.1881
    1DPPC   C3B16067  18.653  13.436   4.107  0.2238 -0.0435 -0.0336
    1DPPC   C4B16068  18.694  13.243   4.533 -0.0274 -0.0583  0.1566
    1DPPC   NC316069  17.967  11.846   2.905  0.1621  0.1605 -0.0923
    1DPPC   PO416070  18.305  11.380   2.912  0.0846 -0.1210 -0.0998
    1DPPC   GL116071  18.447  11.637   3.181 -0.1664 -0.1130 -0.0591
    1DPPC   GL216072  18.605  11.357   3.389  0.3229 -0.1024 -0.1640
    1DPPC   C1A16073  18.495  11.847   3.464  0.3011 -0.1279 -0.0859
    1DPPC   C2A16074  18.477  11.984   3.909  0.0689  0.1129  0.1687
    1DPPC   C3A16075  18.406  12.122   4.348  0.0722 -0.1419  0.4641
    1DPPC   C4A16076  18.257  12.218   4.741 -0.1979 -0.0962  0.0429
    1DPPC   C1B16077  18.589  11.472   3.798  0.0837 -0.0787 -0.0220
    1DPPC   C2B16078  18.627  11.558   4.273  0.1552 -0.0417 -0.1150
    1DPPC   C3B16079  18.555  11.733   4.676 -0.4044 -0.1357 -0.1371
    1DPPC   C4B16080  18.155  11.651   4.897  0.1964  0.0158 -0.0311
    1DPPC   NC316081  17.105  27.298   2.604  0.1281  0.0621 -0.3265
    1DPPC   PO416082  17.275  27.684   2.791  0.1511  0.3139  0.0104
    1DPPC   GL116083  17.159  27.683   3.244  0.0874 -0.0442 -0.0121
    1DPPC   GL216084  17.293  27.385   3.270  0.1113  0.2819 -0.0040
    1DPPC   C1A16085  17.019  27.539   3.663 -0.2274 -0.1113  0.1576
    1DPPC   C2A16086  16.889  27.697   4.026 -0.1368  0.1248 -0.0727
    1DPPC   C3A16087  16.991  27.503   4.375  0.0378  0.3540 -0.1085
    1DPPC   C4A16088  17.254  27.711   4.714  0.0913  0.2170 -0.1167
    1DPPC   C1B16089  17.351  27.151   3.615 -0.1059  0.0330 -0.0439
    1DPPC   C2B16090  17.118  26.899   3.920  0.1562  0.1219  0.3915
    1DPPC   C3B16091  16.793  26.826   4.267  0.1049 -0.3075 -0.0237
    1DPPC   C4B16092  16.540  26.660   4.514 -0.2270 -0.0097 -0.5089
    1DPPC   NC316093  28.409   6.620   3.135 -0.2214  0.1717  0.0802
    1DPPC   PO416094  28.143   6.907   3.217  0.1011  0.0684 -0.1172
    1DPPC   GL116095  28.090   6.675   3.607 -0.0079  0.0740  0.4836
    1DPPC   GL216096  28.084   6.350   3.424  0.1598 -0.0181  0.0541
    1DPPC   C1A16097  28.114   6.673   4.138 -0.2673 -0.0297  0.0717
    1DPPC   C2A16098  28.464   6.643   4.355 -0.0107  0.2644  0.2013
    1DPPC   C3A16099  28.882   6.512   4.590  0.1441  0.0093 -0.1599
    1DPPC   C4A16100  29.328   6.631   4.630  0.1254 -0.1462  0.0665
    1DPPC   C1B16101  27.770   6.361   3.726  0.1550 -0.0486 -0.0897
    1DPPC   C2B16102  27.699   6.425   4.089  0.0957  0.5223 -0.0882
    1DPPC   C3B16103  27.787   6.497   4.532 -0.0509  0.1818 -0.0366
    1DPPC   C4B16104  28.104   6.700   4.708  0.1636 -0.2135  0.1711
    1DPPC   NC316105  18.086   8.177   2.974 -0.1357 -0.1014  0.0321
    1DPPC   PO416106  17.738   8.437   2.958 -0.1486 -0.0278  0.0623
    1DPPC   GL116107  17.771   8.452   3.385 -0.1271 -0.2390 -0.2324
    1DPPC   GL216108  18.080   8.329   3.465 -0.3120  0.2149 -0.1274
    1DPPC   C1A16109  17.658   8.671   3.665  0.0345 -0.0898  0.0523
    1DPPC   C2A16110  17.518   8.893   4.167 -0.0754  0.0759 -0.0740
    1DPPC   C3A16111  17.528   9.058   4.623 -0.0817  0.1595 -0.2617
    1DPPC   C4A16112  17.383   9.027   5.093 -0.2821  0.0126  0.0124
    1DPPC   C1B16113  18.188   8.355   3.921  0.0313 -0.0623 -0.0505
    1DPPC   C2B16114  18.257   8.489   4.314  0.1078 -0.0383  0.0786
    1DPPC   C3B16115  18.246   8.585   4.682 -0.0736 -0.1513 -0.0777
    1DPPC   C4B16116  18.442   8.834   4.996  0.0346  0.3304 -0.0133
    1DPPC   NC316117  17.132  14.394   2.577 -0.1150  0.1655  0.0225
    1DPPC   PO416118  16.782  14.080   2.835 -0.1482  0.1811  0.3161
    1DPPC   GL116119  16.678  14.033   3.204  0.1733 -0.0317 -0.0376
    1DPPC   GL216120  16.960  14.113   3.340 -0.1476  0.1067 -0.1435
    1DPPC   C1A16121  16.473  14.067   3.590 -0.1569  0.1556  0.1819
    1DPPC   C2A16122  16.400  13.972   3.989 -0.2355  0.0456 -0.2608
    1DPPC   C3A16123  16.485  13.784   4.454  0.0537  0.2533 -0.0382
    1DPPC   C4A16124  16.836  13.908   4.847  0.0936 -0.3671  0.2274
    1DPPC   C1B16125  17.062  14.330   3.687  0.2663 -0.2795 -0.3540
    1DPPC   C2B16126  17.118  14.606   4.060 -0.1781  0.1569  0.2112
    1DPPC   C3B16127  17.099  14.933   4.365  0.2483 -0.1451  0.2124
    1DPPC   C4B16128  17.031  14.861   4.744  0.1190 -0.0270 -0.3841
    1DPPC   NC316129  23.412  17.821   2.392 -0.0278  0.1294  0.1616
    1DPPC   PO416130  23.916  17.690   2.431 -0.1459 -0.0598  0.2242
    1DPPC   GL116131  23.948  17.643   2.856  0.3207 -0.0618  0.1561
    1DPPC   GL216132  24.266  17.682   2.838 -0.1471 -0.0392  0.0978
    1DPPC   C1A16133  23.772  17.713   3.244  0.0511  0.4832 -0.0891
    1DPPC   C2A16134  23.498  17.703   3.505  0.0048  0.0880  0.0364
    1DPPC   C3A16135  23.599  17.809   3.970 -0.2043  0.2315  0.1001
    1DPPC   C4A16136  23.628  18.054   4.268 -0.2334 -0.0394  0.1524
    1DPPC   C1B16137  24.330  17.669   3.316 -0.1996 -0.2993  0.2295
    1DPPC   C2B16138  24.060  17.605   3.668 -0.0592  0.3341  0.0414
    1DPPC   C3B16139  24.126  17.782   3.981 -0.1461  0.3230 -0.4093
    1DPPC   C4B16140  24.030  17.830   4.447 -0.1065  0.0688 -0.0415
    1DPPC   NC316141  23.117  10.639   2.413  0.0817 -0.4128 -0.1423
    1DPPC   PO416142  23.284  10.958   2.495  0.0318  0.0695  0.2704
    1DPPC   GL116143  23.577  11.162   2.865  0.0818  0.2374 -0.3371
    1DPPC   GL216144  23.904  11.244   2.913  0.1551 -0.0126  0.0823
    1DPPC   C1A16145  23.591  11.313   3.364  0.1348 -0.2657 -0.0115
    1DPPC   C2A16146  23.779  11.275   3.761  0.2998 -0.1481  0.1802
    1DPPC   C3A16147  23.744  11.140   4.087 -0.0808  0.0601  0.1525
    1DPPC   C4A16148  23.413  10.835   4.250  0.0301 -0.0041  0.1558
    1DPPC   C1B16149  23.771  10.920   3.245  0.0494  0.1348  0.3449
    1DPPC   C2B16150  23.774  10.786   3.736  0.0678 -0.1529 -0.0212
    1DPPC   C3B16151  23.860  10.583   4.166  0.1777 -0.2336  0.0007
    1DPPC   C4B16152  24.099  10.452   4.493 -0.1509  0.1688  0.2714
    1DPPC   NC316153  21.592   5.001   3.968 -0.2443  0.0751 -0.3047
    1DPPC   PO416154  22.041   5.042   4.022 -0.1939  0.1031  0.2775
    1DPPC   GL116155  21.874   5.050   4.401 -0.1841  0.1534 -0.1206
    1DPPC   GL216156  21.580   5.104   4.519 -0.1451 -0.0574 -0.0283
    1DPPC   C1A16157  21.954   4.913   4.877  0.0406  0.0635  0.4395
    1DPPC   C2A16158  21.929   5.110   5.232 -0.3724 -0.0630 -0.0346
    1DPPC   C3A16159  21.912   5.023   5.692  0.0985  0.1880 -0.0441
    1DPPC   C4A16160  21.530   4.841   5.835 -0.4370 -0.0460  0.2429
    1DPPC   C1B16161  21.869   5.434   4.744 -0.2691  0.1177  0.0034
    1DPPC   C2B16162  22.131   5.611   5.130 -0.2128 -0.0703  0.0953
    1DPPC   C3B16163  22.336   5.561   5.538 -0.0410 -0.1997 -0.1050
    1DPPC   C4B16164  22.335   5.769   5.980  0.0589  0.2378 -0.1725
    1DPPC   NC316165  19.899   5.529   4.093  0.1319 -0.0592  0.0426
    1DPPC   PO416166  20.145   5.900   3.891 -0.1231 -0.0801  0.1242
    1DPPC   GL116167  20.076   5.955   4.285  0.0256  0.2047 -0.0851
    1DPPC   GL216168  20.199   6.224   4.474  0.2337 -0.0631 -0.0525
    1DPPC   C1A16169  20.051   5.888   4.751  0.1920 -0.1778  0.0487
    1DPPC   C2A16170  20.068   5.970   5.153 -0.1069  0.1406 -0.2476
    1DPPC   C3A16171  20.097   5.870   5.580  0.2893 -0.0836 -0.3160
    1DPPC   C4A16172  20.124   5.678   5.925  0.1385  0.0215  0.2049
    1DPPC   C1B16173  20.287   6.344   4.877  0.1210 -0.2184  0.1661
    1DPPC   C2B16174  20.348   6.465   5.222  0.1017 -0.2878  0.1509
    1DPPC   C3B16175  20.198   6.431   5.576 -0.3584 -0.2035 -0.1316
    1DPPC   C4B16176  20.113   6.679   5.971 -0.2151  0.0481  0.0364
    1DPPC   NC316177  17.788  15.640   2.437 -0.3889 -0.0246  0.0465
    1DPPC   PO416178  17.735  15.278   2.583 -0.3459  0.0209 -0.2195
    1DPPC   GL116179  17.662  15.416   2.917 -0.1367  0.2213  0.2519
    1DPPC   GL216180  17.579  15.166   3.135  0.2350 -0.0574 -0.3560
    1DPPC   C1A16181  17.890  15.681   3.166 -0.2590  0.0911  0.0136
    1DPPC   C2A16182  18.148  15.925   3.516 -0.1991  0.0029  0.0332
    1DPPC   C3A16183  18.453  16.255   3.725  0.4283 -0.1663  0.3797
    1DPPC   C4A16184  18.510  16.609   3.960  0.0538 -0.0511 -0.1643
    1DPPC   C1B16185  17.706  15.280   3.562  0.0048 -0.0907  0.1319
    1DPPC   C2B16186  17.742  15.762   3.776 -0.3790  0.1629  0.2359
    1DPPC   C3B16187  17.776  16.031   4.118  0.2336 -0.1101 -0.1077
    1DPPC   C4B16188  17.604  16.322   4.305  0.0214 -0.1251 -0.0093
    1DPPC   NC316189  17.598   6.920   3.630  0.0055 -0.4592  0.0845
    1DPPC   PO416190  17.141   7.006   3.770 -0.2051  0.1640 -0.1050
    1DPPC   GL116191  16.769   7.150   3.947  0.0153  0.1997  0.2334
    1DPPC   GL216192  16.521   6.963   3.894 -0.1668 -0.1295 -0.2790
    1DPPC   C1A16193  16.632   6.987   4.446  0.2084 -0.2475  0.0072
    1DPPC   C2A16194  16.491   7.061   4.886  0.0720 -0.2875 -0.1522
    1DPPC   C3A16195  16.496   7.360   5.157 -0.1511  0.1355  0.0832
    1DPPC   C4A16196  16.537   7.248   5.494  0.1537 -0.0716  0.1445
    1DPPC   C1B16197  16.280   6.966   4.137  0.0349  0.1196 -0.0564
    1DPPC   C2B16198  16.194   6.696   4.521  0.4338 -0.1367  0.1983
    1DPPC   C3B16199  16.108   6.807   5.053 -0.0992 -0.0828  0.0795
    1DPPC   C4B16200  15.993   6.987   5.448  0.2299 -0.2336 -0.0746
    1DPPC   NC316201  24.762  11.413   2.247  0.1274 -0.0514 -0.0758
    1DPPC   PO416202  24.340  11.668   2.476 -0.2826  0.5248  0.0629
    1DPPC   GL116203  24.191  11.601   2.889 -0.1806 -0.1910 -0.0653
    1DPPC   GL216204  24.344  11.954   3.118 -0.0508  0.3127 -0.1188
    1DPPC   C1A16205  24.125  11.512   3.309  0.0822 -0.0786 -0.0626
    1DPPC   C2A16206  24.230  11.504   3.732 -0.2178  0.0092  0.1916
    1DPPC   C3A16207  24.165  11.402   4.120 -0.1471  0.1504  0.1908
    1DPPC   C4A16208  24.042  11.197   4.490  0.1046 -0.1378 -0.0948
    1DPPC   C1B16209  24.358  11.949   3.585 -0.0412  0.0681 -0.1163
    1DPPC   C2B16210  24.352  11.889   4.030 -0.1879  0.0144 -0.0034
    1DPPC   C3B16211  24.484  11.676   4.419  0.1857  0.1042 -0.3246
    1DPPC   C4B16212  24.542  11.181   4.448 -0.1084  0.0133 -0.2043
    1DPPC   NC316213  12.197  23.423   1.886 -0.1155 -0.0093 -0.0032
    1DPPC   PO416214  11.879  23.755   2.006  0.1110 -0.0709 -0.2053
    1DPPC   GL116215  12.100  23.674   2.424 -0.0183  0.3304 -0.1647
    1DPPC   GL216216  12.444  23.609   2.427 -0.2608  0.1654  0.1522
    1DPPC   C1A16217  11.849  23.495   2.789  0.1352 -0.0777 -0.0544
    1DPPC   C2A16218  11.599  23.448   3.171  0.0016  0.1913 -0.2142
    1DPPC   C3A16219  11.471  23.073   3.396  0.3340 -0.1614  0.0546
    1DPPC   C4A16220  11.480  22.626   3.423 -0.1702  0.0824  0.0823
    1DPPC   C1B16221  12.385  23.501   2.872 -0.2233  0.3289  0.5115
    1DPPC   C2B16222  12.094  23.446   3.206  0.4108 -0.1265 -0.0958
    1DPPC   C3B16223  11.966  23.087   3.374  0.0775  0.1494 -0.0145
    1DPPC   C4B16224  11.798  22.901   3.732  0.3988 -0.3369  0.3301
    1DPPC   NC316225  22.525   6.860   3.544 -0.3258  0.0199  0.0987
    1DPPC   PO416226  22.887   6.762   3.777 -0.1171  0.2511  0.0116
    1DPPC   GL116227  22.932   6.693   4.189 -0.0874  0.1047  0.0322
    1DPPC   GL216228  23.190   6.520   4.212 -0.0956  0.2332 -0.2057
    1DPPC   C1A16229  22.823   6.511   4.628 -0.3390 -0.0168 -0.0598
    1DPPC   C2A16230  22.948   6.669   4.980 -0.0272  0.0562  0.1638
    1DPPC   C3A16231  22.833   7.003   5.286 -0.2397  0.2529  0.0175
    1DPPC   C4A16232  22.652   7.364   5.564  0.2502 -0.3208 -0.3375
    1DPPC   C1B16233  23.306   6.602   4.618  0.0777  0.1199 -0.1157
    1DPPC   C2B16234  23.383   6.669   5.064  0.1604  0.1778  0.0534
    1DPPC   C3B16235  23.342   6.840   5.486  0.0486  0.0557 -0.0618
    1DPPC   C4B16236  23.677   6.769   5.760  0.0739 -0.2964 -0.1917
    1DPPC   NC316237   9.304  17.237   2.686  0.0742  0.1566  0.2293
    1DPPC   PO416238   9.314  17.698   2.767  0.3314 -0.0542  0.1682
    1DPPC   GL116239   9.392  17.975   3.124 -0.3117  0.0648 -0.0118
    1DPPC   GL216240   9.674  18.042   3.033  0.3532  0.1093  0.1010
    1DPPC   C1A16241   9.471  18.426   3.300 -0.0430  0.0769 -0.0472
    1DPPC   C2A16242   9.740  18.637   3.470 -0.0335  0.1141 -0.2226
    1DPPC   C3A16243   9.867  18.712   3.872  0.0313 -0.1891  0.0097
    1DPPC   C4A16244  10.082  18.810   4.260  0.3551  0.2514  0.1088
    1DPPC   C1B16245   9.809  17.811   3.405 -0.0469  0.1408  0.0278
    1DPPC   C2B16246   9.619  17.546   3.737  0.0923  0.0062 -0.1472
    1DPPC   C3B16247   9.246  17.286   3.804  0.3524  0.3389  0.3011
    1DPPC   C4B16248   8.872  17.181   3.828 -0.0245  0.0337  0.0949
    1DPPC   NC316249  11.940  24.602   1.577  0.0617 -0.0703 -0.0071
    1DPPC   PO416250  12.263  24.869   1.848  0.0256 -0.0737  0.0259
    1DPPC   GL116251  12.257  24.681   2.234  0.1465  0.3384  0.1440
    1DPPC   GL216252  12.472  24.325   2.299  0.2773 -0.0971  0.1319
    1DPPC   C1A16253  12.212  24.586   2.698  0.0278  0.0230  0.0552
    1DPPC   C2A16254  12.337  24.764   3.032 -0.1822  0.3019  0.3819
    1DPPC   C3A16255  12.370  24.600   3.335 -0.4133  0.1422  0.1579
    1DPPC   C4A16256  12.327  24.732   3.670  0.3935 -0.2224 -0.0658
    1DPPC   C1B16257  12.353  24.032   2.644 -0.3587 -0.3155  0.1770
    1DPPC   C2B16258  12.137  23.998   2.983 -0.1730  0.2265 -0.1568
    1DPPC   C3B16259  11.721  23.911   3.140  0.3593 -0.2854 -0.0392
    1DPPC   C4B16260  11.488  23.904   3.506 -0.1296 -0.1908 -0.0293
    1DPPC   NC316261  17.247   5.324   3.546  0.3258  0.0295 -0.0074
    1DPPC   PO416262  16.926   5.634   3.667  0.1018  0.0669 -0.0748
    1DPPC   GL116263  17.135   5.570   4.101  0.0027 -0.0687  0.0686
    1DPPC   GL216264  17.281   5.467   4.031 -0.1158 -0.0175  0.0097
    1DPPC   C1A16265  17.179   5.881   4.380 -0.3954  0.0601  0.1642
    1DPPC   C2A16266  17.085   6.150   4.676 -0.1129 -0.1713  0.1545
    1DPPC   C3A16267  17.112   6.225   5.081  0.0342 -0.1650  0.0676
    1DPPC   C4A16268  17.317   6.077   5.391 -0.0490 -0.0608  0.0202
    1DPPC   C1B16269  17.494   5.486   4.423 -0.1612  0.2086  0.0966
    1DPPC   C2B16270  17.722   5.434   4.765  0.0327  0.0435  0.0788
    1DPPC   C3B16271  17.787   5.606   5.099 -0.1168  0.2692  0.0237
    1DPPC   C4B16272  17.585   5.725   5.548 -0.3088 -0.1600 -0.1931
    1DPPC   NC316273  20.681   4.530   3.609 -0.1580 -0.1343  0.1457
    1DPPC   PO416274  20.506   4.387   3.978 -0.3225  0.1992  0.0771
    1DPPC   GL116275  20.496   4.257   4.338  0.2336  0.2385  0.0112
    1DPPC   GL216276  20.327   3.903   4.448  0.0982 -0.4539  0.0810
    1DPPC   C1A16277  20.420   4.566   4.710  0.0976 -0.2691  0.0774
    1DPPC   C2A16278  20.271   4.818   5.062  0.0421  0.0540  0.3969
    1DPPC   C3A16279  20.097   4.999   5.420  0.0699  0.0027 -0.3491
    1DPPC   C4A16280  19.970   5.112   5.824 -0.1497  0.2113  0.3451
    1DPPC   C1B16281  20.074   4.089   4.749 -0.0946  0.0335 -0.1325
    1DPPC   C2B16282  20.069   4.182   5.096 -0.0484  0.1248  0.0022
    1DPPC   C3B16283  20.264   4.202   5.579 -0.0341 -0.2468 -0.1001
    1DPPC   C4B16284  20.489   4.331   5.932  0.2222 -0.0942  0.0803
    1DPPC   NC316285  23.151   2.577   3.570  0.1187  0.3717 -0.1053
    1DPPC   PO416286  22.856   2.586   3.713 -0.0162  0.0366  0.0940
    1DPPC   GL116287  22.715   2.352   3.962  0.1366 -0.0278  0.1277
    1DPPC   GL216288  22.771   2.113   4.096 -0.0133 -0.3033  0.1333
    1DPPC   C1A16289  22.425   2.262   4.368  0.3010 -0.0017 -0.3651
    1DPPC   C2A16290  22.266   2.253   4.863  0.2580  0.3001 -0.1758
    1DPPC   C3A16291  22.283   2.422   5.226  0.0884  0.0079  0.1256
    1DPPC   C4A16292  22.470   2.430   5.631 -0.1926 -0.0865 -0.2509
    1DPPC   C1B16293  22.928   2.345   4.481  0.0131 -0.1471  0.4452
    1DPPC   C2B16294  22.916   2.288   4.920  0.2906 -0.2265  0.1401
    1DPPC   C3B16295  22.758   2.212   5.307  0.2377 -0.3013 -0.2089
    1DPPC   C4B16296  22.544   1.965   5.759  0.0232  0.0227 -0.1218
    1DPPC   NC316297  18.846  14.771   2.374 -0.1043 -0.2361 -0.0768
    1DPPC   PO416298  18.370  14.781   2.415  0.3381 -0.0284 -0.1144
    1DPPC   GL116299  18.381  14.624   2.791  0.0754  0.0587 -0.0303
    1DPPC   GL216300  18.141  14.265   2.738  0.0315 -0.1469 -0.0838
    1DPPC   C1A16301  18.259  14.627   3.294 -0.1461  0.2391 -0.1471
    1DPPC   C2A16302  18.368  14.798   3.734 -0.0698 -0.1943  0.1482
    1DPPC   C3A16303  18.314  14.693   4.165 -0.0880 -0.2280 -0.1748
    1DPPC   C4A16304  18.418  14.577   4.556  0.0309 -0.1011  0.3057
    1DPPC   C1B16305  18.427  14.195   3.064  0.4309  0.0971 -0.1811
    1DPPC   C2B16306  18.586  14.164   3.524  0.0141  0.0931 -0.1427
    1DPPC   C3B16307  18.551  14.326   3.942 -0.0240 -0.0142 -0.1788
    1DPPC   C4B16308  18.810  14.302   4.349  0.1393 -0.1529  0.0318
    1DPPC   NC316309  24.186  14.551   2.650 -0.2284  0.1106  0.1034
    1DPPC   PO416310  23.746  14.608   2.296 -0.1573  0.2933 -0.1489
    1DPPC   GL116311  23.681  14.503   2.793  0.3050  0.1004 -0.0658
    1DPPC   GL216312  23.656  14.756   2.920 -0.0410 -0.1383 -0.0714
    1DPPC   C1A16313  23.419  14.436   3.194  0.3931 -0.0131  0.0770
    1DPPC   C2A16314  23.225  14.320   3.670 -0.0339 -0.0694  0.1620
    1DPPC   C3A16315  23.084  14.423   4.117 -0.0917 -0.0574  0.1249
    1DPPC   C4A16316  22.956  14.765   4.412  0.2520  0.2283  0.0461
    1DPPC   C1B16317  23.617  15.105   3.254  0.0185 -0.0494 -0.0743
    1DPPC   C2B16318  23.400  15.179   3.748 -0.0434  0.3449 -0.1728
    1DPPC   C3B16319  23.199  15.218   4.111  0.0757 -0.3945 -0.1565
    1DPPC   C4B16320  23.287  15.618   4.361 -0.2436 -0.2449  0.3267
    1DPPC   NC316321  23.277  22.473   2.941  0.2303 -0.3086 -0.0493
    1DPPC   PO416322  22.978  22.161   2.756 -0.0858  0.1120 -0.1024
    1DPPC   GL116323  22.849  22.215   3.200  0.0763 -0.0785  0.0173
    1DPPC   GL216324  22.527  22.232   3.348  0.4048  0.1009 -0.3925
    1DPPC   C1A16325  22.937  22.375   3.718  0.0373 -0.0087  0.1664
    1DPPC   C2A16326  23.178  22.062   4.094 -0.0934 -0.0976  0.1498
    1DPPC   C3A16327  23.571  21.811   4.108 -0.3254 -0.2689 -0.1839
    1DPPC   C4A16328  23.843  21.875   4.348  0.1773  0.0877  0.1615
    1DPPC   C1B16329  22.355  22.223   3.758 -0.3849  0.2180  0.1451
    1DPPC   C2B16330  22.453  21.900   4.057 -0.0569 -0.1326 -0.1344
    1DPPC   C3B16331  22.770  21.840   4.327 -0.1329  0.2397  0.2492
    1DPPC   C4B16332  22.653  21.659   4.717 -0.0341  0.0930 -0.2116
    1DPPC   NC316333  17.738  17.412   2.265  0.0455  0.0455  0.3110
    1DPPC   PO416334  18.211  17.340   2.420 -0.4431  0.0154  0.2806
    1DPPC   GL116335  18.152  17.322   2.840  0.0579  0.2040 -0.0577
    1DPPC   GL216336  18.224  17.636   2.870 -0.1734 -0.0917 -0.0018
    1DPPC   C1A16337  18.081  17.387   3.286  0.0346  0.0188  0.0296
    1DPPC   C2A16338  18.151  17.451   3.747 -0.1933  0.1116 -0.3289
    1DPPC   C3A16339  17.992  17.383   4.289 -0.0656 -0.3638 -0.3864
    1DPPC   C4A16340  17.601  17.263   4.438  0.2590 -0.2892 -0.2571
    1DPPC   C1B16341  17.991  17.845   3.229  0.0646 -0.0931 -0.1040
    1DPPC   C2B16342  18.001  17.893   3.647 -0.2549 -0.0806 -0.0401
    1DPPC   C3B16343  17.742  17.701   3.972  0.2515  0.1031  0.1625
    1DPPC   C4B16344  17.412  17.741   4.297 -0.1239 -0.1249 -0.2123
    1DPPC   NC316345  14.857   6.989   3.741 -0.0720 -0.2290  0.2067
    1DPPC   PO416346  14.649   7.233   3.503 -0.0083 -0.0404  0.0740
    1DPPC   GL116347  14.634   7.394   3.877  0.0642 -0.5068 -0.0792
    1DPPC   GL216348  14.641   7.747   3.962 -0.0293  0.0104 -0.1556
    1DPPC   C1A16349  14.538   7.438   4.339  0.1953 -0.1370  0.0941
    1DPPC   C2A16350  14.651   7.350   4.809 -0.1160 -0.1650 -0.2835
    1DPPC   C3A16351  14.743   7.305   5.192  0.4198  0.1104  0.1526
    1DPPC   C4A16352  14.692   6.955   5.463 -0.1113 -0.0337 -0.3229
    1DPPC   C1B16353  14.639   7.935   4.375 -0.2062 -0.0601  0.1565
    1DPPC   C2B16354  14.670   8.180   4.644  0.0637 -0.3693 -0.0581
    1DPPC   C3B16355  14.673   8.419   4.968 -0.2225 -0.1631 -0.1628
    1DPPC   C4B16356  14.646   8.694   5.221 -0.0845 -0.3481  0.2882
    1DPPC   NC316357  20.648   5.037   4.306  0.0471 -0.1470 -0.0328
    1DPPC   PO416358  20.790   5.488   4.121 -0.3155 -0.3119 -0.2564
    1DPPC   GL116359  21.019   5.551   4.532  0.0655  0.0756  0.3596
    1DPPC   GL216360  21.396   5.535   4.563 -0.3171  0.2820  0.0511
    1DPPC   C1A16361  21.165   5.987   4.771 -0.0822  0.1101 -0.1074
    1DPPC   C2A16362  21.186   5.945   5.196 -0.1080  0.1284  0.1255
    1DPPC   C3A16363  21.373   5.911   5.614  0.3202  0.0156  0.0037
    1DPPC   C4A16364  21.342   6.026   6.080  0.0070  0.2388  0.0722
    1DPPC   C1B16365  21.461   5.472   5.011 -0.0141  0.3297 -0.1799
    1DPPC   C2B16366  21.654   5.542   5.348 -0.0907 -0.0610  0.0448
    1DPPC   C3B16367  21.800   5.482   5.782 -0.0608 -0.1002  0.0446
    1DPPC   C4B16368  21.985   5.404   6.166  0.1472 -0.2450  0.0682
    1DPPC   NC316369  18.641   7.089   3.532  0.1920 -0.1571 -0.3038
    1DPPC   PO416370  18.330   7.477   3.569  0.0979  0.0995 -0.2300
    1DPPC   GL116371  18.436   7.299   3.966 -0.0316 -0.1585  0.0548
    1DPPC   GL216372  18.457   6.977   4.015  0.0485 -0.5474  0.2201
    1DPPC   C1A16373  18.507   7.529   4.336 -0.0918  0.2319 -0.2035
    1DPPC   C2A16374  18.647   7.659   4.648 -0.1760  0.2808 -0.1594
    1DPPC   C3A16375  18.873   7.607   5.053 -0.5031 -0.1005  0.2340
    1DPPC   C4A16376  18.889   7.408   5.467  0.0675 -0.1606  0.0897
    1DPPC   C1B16377  18.307   6.894   4.475 -0.0621  0.1600 -0.1401
    1DPPC   C2B16378  18.169   6.913   4.835  0.0001  0.0525  0.0914
    1DPPC   C3B16379  18.079   7.187   5.135  0.1508  0.0480  0.2304
    1DPPC   C4B16380  18.002   7.191   5.615  0.1785  0.2406  0.1208
    1DPPC   NC316381  14.637   7.675   3.085 -0.1104  0.1166 -0.0817
    1DPPC   PO416382  14.802   7.685   3.443  0.0221  0.0733  0.0519
    1DPPC   GL116383  15.118   7.857   3.663  0.0483  0.0063  0.2405
    1DPPC   GL216384  15.423   7.993   3.670 -0.2899 -0.2275  0.0881
    1DPPC   C1A16385  15.049   8.075   4.091  0.1359  0.0420  0.1621
    1DPPC   C2A16386  15.084   8.314   4.433 -0.0530  0.0051  0.0993
    1DPPC   C3A16387  15.207   8.366   4.777  0.2443 -0.1954  0.1309
    1DPPC   C4A16388  15.162   8.560   5.189  0.1115  0.3339  0.1856
    1DPPC   C1B16389  15.554   8.006   4.014 -0.0308 -0.5175 -0.0766
    1DPPC   C2B16390  15.615   8.004   4.365 -0.3122  0.3348 -0.0224
    1DPPC   C3B16391  15.708   8.148   4.731  0.1976 -0.1752 -0.1013
    1DPPC   C4B16392  15.682   8.277   5.124  0.1440  0.0655  0.1206
    1DPPC   NC316393  13.861   4.257   4.102 -0.0479 -0.2533  0.0989
    1DPPC   PO416394  14.261   4.435   4.249 -0.5571 -0.1882 -0.4479
    1DPPC   GL116395  14.500   4.671   4.623 -0.1619  0.2594 -0.1215
    1DPPC   GL216396  14.526   4.912   4.593  0.0556 -0.2007  0.0245
    1DPPC   C1A16397  14.357   4.810   5.036  0.0352  0.0896  0.1850
    1DPPC   C2A16398  14.266   5.003   5.415 -0.4159 -0.2624  0.3167
    1DPPC   C3A16399  14.134   4.874   5.764  0.3495 -0.2839  0.0102
    1DPPC   C4A16400  13.947   5.164   5.999  0.3350 -0.1335  0.0386
    1DPPC   C1B16401  14.335   5.311   4.839 -0.2781  0.1568 -0.0823
    1DPPC   C2B16402  14.134   5.412   5.136 -0.1113  0.0301 -0.0189
    1DPPC   C3B16403  14.173   5.629   5.484 -0.0481  0.0739 -0.0038
    1DPPC   C4B16404  14.133   5.818   5.833 -0.1991  0.0886 -0.2421
    1DPPC   NC316405  24.485  12.107   2.698  0.0745 -0.3417 -0.2280
    1DPPC   PO416406  24.806  11.757   2.679  0.0638 -0.1293  0.2839
    1DPPC   GL116407  24.912  11.930   3.055  0.0605  0.2194  0.0599
    1DPPC   GL216408  25.221  11.861   3.130  0.1570  0.0497  0.1026
    1DPPC   C1A16409  24.867  12.004   3.561 -0.0869  0.0420 -0.5677
    1DPPC   C2A16410  24.820  11.955   4.109  0.1080 -0.1356  0.0214
    1DPPC   C3A16411  24.917  12.003   4.597  0.0861 -0.0731  0.2828
    1DPPC   C4A16412  24.687  11.877   4.911  0.3361  0.2360 -0.0274
    1DPPC   C1B16413  25.351  11.841   3.476  0.0305  0.0244 -0.0514
    1DPPC   C2B16414  25.271  11.747   3.797 -0.2824  0.1993  0.0653
    1DPPC   C3B16415  25.374  11.904   4.129 -0.0113  0.3312  0.0868
    1DPPC   C4B16416  25.621  12.096   4.507  0.1585 -0.0412  0.1524
    1DPPC   NC316417   9.296  15.973   2.792  0.0906  0.3641 -0.0530
    1DPPC   PO416418   9.043  16.328   2.672  0.4394 -0.0102 -0.1574
    1DPPC   GL116419   8.859  16.684   3.046  0.3797  0.0310 -0.2681
    1DPPC   GL216420   9.014  16.872   3.179 -0.0430 -0.1237 -0.0323
    1DPPC   C1A16421   8.782  16.712   3.547  0.1062  0.0856 -0.2101
    1DPPC   C2A16422   8.451  16.459   3.777 -0.1935 -0.1832 -0.0640
    1DPPC   C3A16423   8.231  16.472   4.160 -0.2808  0.1553  0.2862
    1DPPC   C4A16424   8.241  16.977   4.385 -0.0554 -0.4756  0.0518
    1DPPC   C1B16425   9.008  17.245   3.308 -0.1936  0.0008 -0.4135
    1DPPC   C2B16426   9.137  17.669   3.406  0.4599 -0.1393 -0.1026
    1DPPC   C3B16427   9.333  17.972   3.753 -0.0609  0.2324  0.3172
    1DPPC   C4B16428   9.174  18.225   4.158 -0.0308  0.1557 -0.2691
    1DPPC   NC316429  23.378  16.024   1.965 -0.0195  0.2561  0.0989
    1DPPC   PO416430  23.342  16.439   2.123  0.2724 -0.0690 -0.0959
    1DPPC   GL116431  23.271  16.454   2.612 -0.2736  0.0965  0.1139
    1DPPC   GL216432  23.524  16.421   2.906 -0.3727  0.3274  0.2889
    1DPPC   C1A16433  23.053  16.588   2.987 -0.0894  0.1659  0.2095
    1DPPC   C2A16434  22.963  16.474   3.398 -0.1286  0.3405 -0.1883
    1DPPC   C3A16435  22.708  16.598   3.735 -0.1313  0.1713 -0.0987
    1DPPC   C4A16436  22.445  16.276   4.052  0.1543 -0.0719  0.0280
    1DPPC   C1B16437  23.453  16.226   3.309 -0.1008 -0.1328  0.3588
    1DPPC   C2B16438  23.404  16.104   3.660  0.0104 -0.1759 -0.0075
    1DPPC   C3B16439  23.560  16.084   4.167 -0.1314  0.1081  0.0677
    1DPPC   C4B16440  23.679  15.900   4.586 -0.0298  0.2058  0.0707
    1DPPC   NC316441  13.547   5.456   4.005  0.0165 -0.0626  0.1273
    1DPPC   PO416442  13.979   5.441   4.059 -0.3986  0.0661  0.0249
    1DPPC   GL116443  13.751   5.203   4.395 -0.0759  0.0657  0.4013
    1DPPC   GL216444  13.921   5.104   4.641 -0.0745  0.0255 -0.1207
    1DPPC   C1A16445  13.582   5.383   4.839  0.1446  0.0569 -0.1820
    1DPPC   C2A16446  13.340   5.564   5.193  0.0439 -0.0028  0.3207
    1DPPC   C3A16447  13.140   5.614   5.529 -0.3885  0.0212 -0.0459
    1DPPC   C4A16448  12.850   5.838   5.834  0.0507  0.0119  0.2172
    1DPPC   C1B16449  13.812   4.992   5.049  0.0923 -0.1742 -0.0392
    1DPPC   C2B16450  13.759   5.269   5.391 -0.2510 -0.4609  0.0841
    1DPPC   C3B16451  13.538   5.424   5.813 -0.0652 -0.3411  0.2088
    1DPPC   C4B16452  13.724   5.613   6.065 -0.0119  0.1690 -0.2982
    1DPPC   NC316453  26.671  14.540   2.852  0.0997  0.0809 -0.1101
    1DPPC   PO416454  26.603  14.126   2.784 -0.1143 -0.1563  0.0608
    1DPPC   GL116455  26.428  13.930   3.207  0.0421 -0.3205 -0.0835
    1DPPC   GL216456  26.072  13.924   3.282  0.1323 -0.1756  0.1058
    1DPPC   C1A16457  26.416  14.037   3.770 -0.1733  0.0279 -0.1554
    1DPPC   C2A16458  26.421  14.026   4.186 -0.0170  0.0448  0.0277
    1DPPC   C3A16459  26.638  14.086   4.552 -0.0763 -0.0669  0.0667
    1DPPC   C4A16460  26.738  13.807   4.915 -0.3431  0.1529  0.2703
    1DPPC   C1B16461  25.936  14.072   3.631  0.2953 -0.0520  0.0237
    1DPPC   C2B16462  25.987  14.128   3.987 -0.0888 -0.1387 -0.1196
    1DPPC   C3B16463  25.845  13.983   4.310 -0.0107  0.2412  0.2405
    1DPPC   C4B16464  25.821  13.847   4.608  0.0972  0.0755  0.1500
    1DPPC   NC316465  17.415  11.842   2.356 -0.0026  0.0924  0.0975
    1DPPC   PO416466  17.179  11.773   2.733  0.2190  0.2245 -0.0305
    1DPPC   GL116467  17.421  11.697   3.119 -0.1722  0.1316 -0.3818
    1DPPC   GL216468  17.421  11.346   3.159 -0.1637 -0.2162  0.1054
    1DPPC   C1A16469  17.654  11.902   3.470  0.0237  0.2189  0.3787
    1DPPC   C2A16470  17.655  12.148   3.933 -0.0171  0.0307 -0.0584
    1DPPC   C3A16471  17.454  12.136   4.242  0.0475  0.4379  0.2108
    1DPPC   C4A16472  17.507  12.304   4.589  0.0062  0.5681  0.0561
    1DPPC   C1B16473  17.573  11.437   3.533 -0.1787  0.2413 -0.1672
    1DPPC   C2B16474  17.547  11.639   3.863  0.1813  0.3728  0.0876
    1DPPC   C3B16475  17.422  11.651   4.296 -0.0401 -0.0482  0.2490
    1DPPC   C4B16476  17.563  11.665   4.674 -0.2852  0.0012  0.2836
    1DPPC   NC316477  16.404   3.865   3.677 -0.2326 -0.1914 -0.2026
    1DPPC   PO416478  16.611   4.250   3.896 -0.0788  0.0314  0.0483
    1DPPC   GL116479  16.868   4.358   4.271  0.0486 -0.0658  0.1352
    1DPPC   GL216480  17.033   4.239   4.534  0.0764 -0.0005  0.0567
    1DPPC   C1A16481  16.572   4.438   4.581 -0.1590  0.2066  0.0297
    1DPPC   C2A16482  16.758   4.477   4.887  0.0606  0.1711 -0.0365
    1DPPC   C3A16483  16.675   4.464   5.250 -0.3352  0.2149 -0.0385
    1DPPC   C4A16484  16.708   4.785   5.604  0.0080 -0.1850  0.0326
    1DPPC   C1B16485  17.133   4.134   4.930 -0.0994 -0.0215 -0.1099
    1DPPC   C2B16486  16.957   4.039   5.302  0.1313  0.1898  0.0381
    1DPPC   C3B16487  16.764   4.188   5.684  0.0421 -0.0623 -0.0974
    1DPPC   C4B16488  16.959   4.511   5.982  0.1291 -0.0129  0.4055
    1DPPC   NC316489  22.741  14.725   2.074 -0.1765 -0.5028  0.1982
    1DPPC   PO416490  22.856  14.805   2.511 -0.3532  0.1274  0.0289
    1DPPC   GL116491  22.626  14.808   2.937  0.0642 -0.2390  0.0792
    1DPPC   GL216492  22.402  14.673   2.873 -0.0938  0.0406  0.1700
    1DPPC   C1A16493  22.451  14.799   3.355  0.2028  0.1348 -0.0975
    1DPPC   C2A16494  22.247  14.675   3.661  0.0575 -0.1516  0.1091
    1DPPC   C3A16495  22.021  14.894   3.965 -0.1990 -0.1243 -0.2196
    1DPPC   C4A16496  21.999  15.268   4.155 -0.0446  0.1396 -0.0141
    1DPPC   C1B16497  22.317  14.329   3.070  0.1744 -0.1364  0.3743
    1DPPC   C2B16498  22.194  14.199   3.448 -0.0734  0.0523 -0.0428
    1DPPC   C3B16499  22.085  14.070   3.834 -0.0554 -0.0634 -0.0653
    1DPPC   C4B16500  22.115  14.092   4.344 -0.0231  0.3013  0.4263
    1DPPC   NC316501  18.637  18.520   2.048 -0.0929  0.3445  0.2629
    1DPPC   PO416502  18.283  18.259   2.215  0.1344 -0.0061 -0.2763
    1DPPC   GL116503  18.171  18.180   2.638 -0.2968  0.1134 -0.0967
    1DPPC   GL216504  17.926  18.055   2.792  0.0708 -0.1445 -0.1079
    1DPPC   C1A16505  18.369  18.134   2.982 -0.3092 -0.1061  0.0993
    1DPPC   C2A16506  18.322  18.170   3.393  0.1930 -0.0649 -0.0165
    1DPPC   C3A16507  18.125  18.337   3.851 -0.0570 -0.2530 -0.0391
    1DPPC   C4A16508  18.183  18.555   4.228 -0.1910  0.0206  0.1790
    1DPPC   C1B16509  17.544  18.016   3.103  0.3464  0.2239  0.0803
    1DPPC   C2B16510  17.191  17.988   3.481 -0.1609 -0.1460 -0.2529
    1DPPC   C3B16511  17.214  17.673   3.838 -0.3109 -0.5131  0.1349
    1DPPC   C4B16512  17.189  17.326   4.117 -0.4611  0.0280 -0.2923
    1DPPC   NC316513  25.078   9.098   3.066  0.2411 -0.3595 -0.0196
    1DPPC   PO416514  24.705   9.366   3.046  0.1483  0.2669 -0.4750
    1DPPC   GL116515  24.595   9.454   3.383  0.0842 -0.1739 -0.1750
    1DPPC   GL216516  24.235   9.462   3.591  0.2927 -0.3135 -0.0619
    1DPPC   C1A16517  24.844   9.500   3.818  0.2430  0.0006  0.0201
    1DPPC   C2A16518  24.870   9.712   4.226  0.0724 -0.1904  0.3032
    1DPPC   C3A16519  24.603   9.839   4.533  0.0961  0.0668  0.0222
    1DPPC   C4A16520  24.147  10.008   4.722  0.0665  0.0999 -0.0650
    1DPPC   C1B16521  23.919   9.336   3.878  0.0427  0.0167 -0.2270
    1DPPC   C2B16522  23.740   9.404   4.176 -0.2061 -0.0994 -0.0589
    1DPPC   C3B16523  23.654   9.246   4.513 -0.0937 -0.3625 -0.1053
    1DPPC   C4B16524  23.508   8.879   4.638  0.1561  0.1151 -0.1790
    1DPPC   NC316525  19.658  15.165   2.373 -0.2712 -0.1597  0.3705
    1DPPC   PO416526  19.409  14.810   2.420  0.0875  0.2048  0.0340
    1DPPC   GL116527  19.406  14.633   2.781  0.0479 -0.2003 -0.1254
    1DPPC   GL216528  19.076  14.782   2.833  0.2366  0.0808  0.2718
    1DPPC   C1A16529  19.345  14.358   3.089 -0.1224 -0.3331 -0.2790
    1DPPC   C2A16530  19.092  14.166   3.341 -0.1288 -0.2389 -0.0093
    1DPPC   C3A16531  18.997  13.938   3.696 -0.1436 -0.3762  0.1109
    1DPPC   C4A16532  19.113  13.926   4.123 -0.2888 -0.0209  0.0396
    1DPPC   C1B16533  19.198  14.953   3.228  0.1981 -0.1929 -0.0846
    1DPPC   C2B16534  19.279  14.964   3.667 -0.1133  0.1132  0.0101
    1DPPC   C3B16535  19.453  14.955   4.084  0.2579  0.1694  0.1200
    1DPPC   C4B16536  19.517  15.041   4.515 -0.2773 -0.0597  0.0792
    1DPPC   NC316537  17.729  21.728   1.385 -0.0820 -0.0347 -0.0929
    1DPPC   PO416538  18.056  21.581   1.734 -0.0858 -0.0956 -0.0231
    1DPPC   GL116539  18.024  21.622   2.160 -0.2710  0.0660  0.3304
    1DPPC   GL216540  17.917  21.381   2.173 -0.1974  0.1416 -0.2144
    1DPPC   C1A16541  18.028  21.593   2.590 -0.0448 -0.0765  0.2782
    1DPPC   C2A16542  17.962  21.598   2.994 -0.2221  0.3402 -0.0331
    1DPPC   C3A16543  17.908  21.880   3.213 -0.4082  0.0286 -0.0486
    1DPPC   C4A16544  17.898  22.093   3.573 -0.0153 -0.0692 -0.1428
    1DPPC   C1B16545  18.253  21.207   2.372  0.1499 -0.1093  0.0172
    1DPPC   C2B16546  18.358  20.836   2.643 -0.0184  0.0338  0.0355
    1DPPC   C3B16547  18.636  20.841   3.035 -0.0603  0.0504  0.0720
    1DPPC   C4B16548  18.889  21.156   3.192  0.0402 -0.0753 -0.2852
    1DPPC   NC316549  22.553  13.139   2.751 -0.3472  0.3601 -0.1059
    1DPPC   PO416550  22.762  13.415   2.512  0.1705 -0.0538  0.3930
    1DPPC   GL116551  22.781  13.575   2.873  0.3229  0.0604  0.2766
    1DPPC   GL216552  22.604  13.819   2.882  0.2987 -0.1438 -0.0549
    1DPPC   C1A16553  22.919  13.496   3.201  0.2106 -0.0994 -0.1772
    1DPPC   C2A16554  22.902  13.482   3.629  0.1064 -0.1340 -0.4364
    1DPPC   C3A16555  22.871  13.473   4.065  0.1881 -0.1825 -0.0198
    1DPPC   C4A16556  23.051  13.428   4.510 -0.0436 -0.2337  0.1268
    1DPPC   C1B16557  22.455  13.853   3.295  0.0355 -0.3398 -0.3270
    1DPPC   C2B16558  22.453  13.779   3.724  0.1571 -0.1302 -0.0021
    1DPPC   C3B16559  22.521  13.762   4.192 -0.0325 -0.1507  0.1951
    1DPPC   C4B16560  22.578  13.823   4.632  0.1596 -0.1571  0.0488
    1DPPC   NC316561  17.029   7.463   3.547 -0.1979  0.1388 -0.0976
    1DPPC   PO416562  17.302   7.832   3.463  0.2788  0.0603 -0.1049
    1DPPC   GL116563  17.517   7.882   3.810 -0.0797 -0.0546 -0.1372
    1DPPC   GL216564  17.767   8.092   3.823  0.1215 -0.1099 -0.1057
    1DPPC   C1A16565  17.541   7.927   4.299  0.1758  0.1310  0.2634
    1DPPC   C2A16566  17.587   8.049   4.719  0.1202  0.0356  0.2316
    1DPPC   C3A16567  17.573   8.097   5.162  0.5435  0.1521 -0.2030
    1DPPC   C4A16568  17.364   8.173   5.517 -0.0950 -0.1461 -0.1332
    1DPPC   C1B16569  17.742   8.382   4.193  0.0936  0.1579  0.1840
    1DPPC   C2B16570  17.717   8.536   4.546  0.1791  0.1586  0.0543
    1DPPC   C3B16571  17.476   8.525   4.938 -0.1011  0.0788  0.3527
    1DPPC   C4B16572  17.445   8.594   5.316  0.2775 -0.1967 -0.1372
    1DPPC   NC316573  26.435  15.497   2.780 -0.0897  0.3730  0.0324
    1DPPC   PO416574  26.679  15.327   3.078  0.0122 -0.3010  0.0842
    1DPPC   GL116575  26.715  15.384   3.400 -0.1768  0.2067 -0.2049
    1DPPC   GL216576  26.958  15.628   3.457 -0.1319  0.3168 -0.2564
    1DPPC   C1A16577  26.790  15.290   3.819  0.1186 -0.1789 -0.2395
    1DPPC   C2A16578  26.734  15.302   4.229  0.0811 -0.3207  0.3424
    1DPPC   C3A16579  26.673  15.060   4.697  0.2756  0.1930 -0.3208
    1DPPC   C4A16580  26.859  14.891   5.127 -0.3225 -0.0986  0.2215
    1DPPC   C1B16581  26.888  15.762   3.908  0.2759  0.2649  0.3142
    1DPPC   C2B16582  26.919  15.827   4.347  0.2503  0.0321 -0.2188
    1DPPC   C3B16583  27.051  15.398   4.636 -0.0067  0.0352 -0.0454
    1DPPC   C4B16584  27.197  15.008   4.774 -0.2600 -0.2263  0.2267
    1DPPC   NC316585  26.354  11.773   2.604  0.0488 -0.1404  0.0480
    1DPPC   PO416586  26.268  11.380   2.512 -0.1215 -0.1768 -0.0611
    1DPPC   GL116587  26.294  11.432   3.001  0.2251 -0.2335  0.2881
    1DPPC   GL216588  26.578  11.236   3.090 -0.0241  0.1950  0.4258
    1DPPC   C1A16589  26.142  11.745   3.384 -0.0986  0.3092  0.4261
    1DPPC   C2A16590  26.168  11.607   3.793 -0.2637  0.2991 -0.0304
    1DPPC   C3A16591  26.181  11.508   4.175  0.1421  0.0031 -0.2151
    1DPPC   C4A16592  26.311  11.325   4.391  0.0702  0.3416 -0.0359
    1DPPC   C1B16593  26.630  10.939   3.508 -0.1852  0.3458  0.2083
    1DPPC   C2B16594  26.743  10.740   3.917  0.1579 -0.0571  0.0617
    1DPPC   C3B16595  26.820  10.642   4.292 -0.1522 -0.1551 -0.0061
    1DPPC   C4B16596  26.944  10.893   4.696 -0.2314  0.0366  0.0216
    1DPPC   NC316597  26.448  24.860   3.331 -0.3299 -0.2256 -0.0316
    1DPPC   PO416598  26.382  24.461   3.326  0.0375 -0.1337  0.1080
    1DPPC   GL116599  26.556  24.547   3.773 -0.0805  0.3134 -0.1146
    1DPPC   GL216600  26.518  24.939   3.826  0.1243  0.1464 -0.2309
    1DPPC   C1A16601  26.769  24.470   4.120  0.1250 -0.2427 -0.0990
    1DPPC   C2A16602  26.940  24.355   4.406 -0.2456  0.1125 -0.1723
    1DPPC   C3A16603  27.197  24.165   4.604  0.1569  0.0574  0.0061
    1DPPC   C4A16604  27.549  23.942   4.683  0.1144  0.0771 -0.2024
    1DPPC   C1B16605  26.221  24.712   4.148 -0.1461 -0.0454 -0.0497
    1DPPC   C2B16606  26.396  24.467   4.442 -0.1387  0.2304 -0.1197
    1DPPC   C3B16607  26.567  24.058   4.399  0.0041  0.0075 -0.2858
    1DPPC   C4B16608  26.307  23.693   4.192 -0.0396  0.0589  0.1029
    1DPPC   NC316609  15.135   7.305   3.467 -0.1903 -0.0221 -0.0353
    1DPPC   PO416610  15.356   6.920   3.689  0.1889 -0.2412  0.1119
    1DPPC   GL116611  15.563   6.959   4.002 -0.1869  0.0122 -0.0814
    1DPPC   GL216612  15.646   7.268   3.992 -0.0551  0.0318 -0.2382
    1DPPC   C1A16613  15.741   7.010   4.475  0.4394 -0.1707  0.0676
    1DPPC   C2A16614  15.730   7.099   4.824 -0.2064  0.0717 -0.0112
    1DPPC   C3A16615  15.633   7.157   5.165  0.2340 -0.1083 -0.0016
    1DPPC   C4A16616  15.648   7.401   5.564  0.0649 -0.0229  0.0313
    1DPPC   C1B16617  15.702   7.518   4.339  0.0972  0.0859  0.1520
    1DPPC   C2B16618  15.679   7.603   4.784 -0.0733 -0.1751 -0.2354
    1DPPC   C3B16619  15.726   7.814   5.216 -0.0526  0.2137  0.3160
    1DPPC   C4B16620  15.938   8.174   5.531 -0.0750 -0.0575  0.0370
    1DPPC   NC316621  11.676  19.520   2.319  0.2763 -0.1398  0.3149
    1DPPC   PO416622  11.599  19.876   2.207 -0.0839 -0.0535 -0.2681
    1DPPC   GL116623  11.772  19.864   2.665  0.1978 -0.0045  0.0454
    1DPPC   GL216624  12.048  20.016   2.774  0.3134 -0.2224 -0.0719
    1DPPC   C1A16625  11.555  19.655   3.014  0.2348  0.0346 -0.0087
    1DPPC   C2A16626  11.647  19.281   3.118  0.0263 -0.1183  0.0954
    1DPPC   C3A16627  11.503  19.165   3.507 -0.0831  0.0859  0.1481
    1DPPC   C4A16628  11.509  19.321   3.952  0.1405 -0.3891 -0.1176
    1DPPC   C1B16629  11.948  19.951   3.178  0.0780  0.1405  0.1247
    1DPPC   C2B16630  12.179  19.952   3.564  0.0933  0.1394  0.1068
    1DPPC   C3B16631  12.239  20.400   3.721  0.3361  0.2085 -0.1537
    1DPPC   C4B16632  12.295  20.511   4.073 -0.0545  0.0742 -0.1416
    1DPPC   NC316633  20.065   8.175   3.299  0.1367  0.4499 -0.0496
    1DPPC   PO416634  20.495   8.012   3.194  0.1578  0.1770 -0.2300
    1DPPC   GL116635  20.576   8.084   3.545 -0.2897 -0.1535 -0.0638
    1DPPC   GL216636  20.330   8.090   3.784 -0.1203  0.1056 -0.1269
    1DPPC   C1A16637  20.855   7.921   3.856  0.3647  0.1055 -0.3674
    1DPPC   C2A16638  20.994   7.859   4.275  0.2327  0.1069  0.2119
    1DPPC   C3A16639  20.953   7.855   4.649  0.0074  0.3116 -0.0879
    1DPPC   C4A16640  21.053   8.030   4.983 -0.1913 -0.1808  0.1116
    1DPPC   C1B16641  20.210   8.119   4.098  0.4691  0.1574 -0.2467
    1DPPC   C2B16642  20.139   8.070   4.506 -0.2017  0.1088 -0.2362
    1DPPC   C3B16643  20.025   8.058   4.898  0.2371 -0.2568 -0.1376
    1DPPC   C4B16644  19.895   8.022   5.357  0.1721  0.2433 -0.1808
    1DPPC   NC316645   8.916  26.412   2.407 -0.0373 -0.0393  0.3022
    1DPPC   PO416646   8.555  26.117   2.221  0.0975 -0.0036  0.1877
    1DPPC   GL116647   8.509  26.359   2.670 -0.0056  0.2393  0.1047
    1DPPC   GL216648   8.760  26.446   2.888  0.2756  0.0432 -0.0918
    1DPPC   C1A16649   8.319  26.312   3.169  0.2286  0.1208  0.1083
    1DPPC   C2A16650   8.350  26.447   3.591 -0.4280 -0.1037  0.1561
    1DPPC   C3A16651   8.476  26.638   3.878 -0.0236 -0.1452 -0.0898
    1DPPC   C4A16652   8.481  26.869   4.247  0.2245 -0.4973 -0.4244
    1DPPC   C1B16653   8.712  26.667   3.299  0.1829 -0.0363  0.1598
    1DPPC   C2B16654   8.390  26.937   3.496 -0.0890  0.1569  0.2954
    1DPPC   C3B16655   8.107  27.031   3.817  0.0457 -0.0094 -0.1360
    1DPPC   C4B16656   8.291  27.319   4.107  0.0896  0.2044  0.1798
    1DPPC   NC316657  12.778   5.073   3.714 -0.0044 -0.2336 -0.1768
    1DPPC   PO416658  12.958   5.325   3.953  0.1521  0.2324  0.2898
    1DPPC   GL116659  13.018   5.243   4.343  0.0934  0.3862  0.1084
    1DPPC   GL216660  13.265   5.420   4.453  0.1084 -0.1268  0.1505
    1DPPC   C1A16661  12.977   5.350   4.882 -0.3373  0.0795 -0.0635
    1DPPC   C2A16662  12.815   5.686   5.119  0.1522  0.1119 -0.0487
    1DPPC   C3A16663  12.568   5.813   5.431  0.0542  0.1753  0.0921
    1DPPC   C4A16664  12.317   5.974   5.760 -0.0435 -0.1243  0.2012
    1DPPC   C1B16665  13.244   5.749   4.765 -0.1358 -0.2261  0.3577
    1DPPC   C2B16666  13.203   6.049   5.030  0.1248 -0.0556 -0.1287
    1DPPC   C3B16667  13.264   6.134   5.485 -0.1184 -0.1360 -0.1474
    1DPPC   C4B16668  13.138   6.332   5.946  0.1019 -0.3067 -0.1629
    1DPPC   NC316669  19.279  28.140   3.115  0.0808 -0.2016 -0.0157
    1DPPC   PO416670  19.152  27.704   2.893 -0.1862  0.1656 -0.2571
    1DPPC   GL116671  19.008  27.535   3.305  0.3002  0.0795 -0.0483
    1DPPC   GL216672  19.124  27.802   3.591 -0.2870  0.0832 -0.3405
    1DPPC   C1A16673  19.299  27.322   3.585 -0.3327  0.2176 -0.1169
    1DPPC   C2A16674  19.556  27.273   3.957  0.0597 -0.2211 -0.1155
    1DPPC   C3A16675  19.796  27.352   4.401  0.1357  0.0642 -0.1231
    1DPPC   C4A16676  20.018  27.108   4.598 -0.0881 -0.0680 -0.1784
    1DPPC   C1B16677  18.741  27.597   3.777  0.3656  0.0374  0.2280
    1DPPC   C2B16678  18.487  27.729   4.101 -0.1357  0.0195 -0.2628
    1DPPC   C3B16679  18.554  27.803   4.567 -0.0712 -0.0701 -0.1634
    1DPPC   C4B16680  18.721  27.881   5.003  0.0756  0.3052  0.1429
    1DPPC   NC316681  21.331   7.894   2.832 -0.2117  0.0330  0.0160
    1DPPC   PO416682  21.539   7.970   3.252 -0.0282 -0.0562 -0.0870
    1DPPC   GL116683  21.411   7.992   3.602  0.0481 -0.0535 -0.0471
    1DPPC   GL216684  21.721   7.791   3.795  0.0985  0.0450 -0.0898
    1DPPC   C1A16685  21.216   8.215   4.053 -0.0988  0.0972  0.2086
    1DPPC   C2A16686  21.099   8.390   4.473 -0.0571 -0.1865 -0.2140
    1DPPC   C3A16687  21.096   8.545   4.889  0.2495  0.0298  0.1613
    1DPPC   C4A16688  21.160   8.571   5.235 -0.0043 -0.1053  0.1601
    1DPPC   C1B16689  21.605   7.897   4.088  0.0328  0.1769 -0.3329
    1DPPC   C2B16690  21.493   7.914   4.494  0.1895 -0.2758 -0.2520
    1DPPC   C3B16691  21.678   7.858   4.923 -0.0824 -0.0672  0.2009
    1DPPC   C4B16692  21.843   7.833   5.386  0.0604 -0.0999  0.2980
    1DPPC   NC316693  22.411  27.902   3.252 -0.0027  0.0397  0.1606
    1DPPC   PO416694  22.391  28.345   3.469 -0.2242 -0.0719  0.1047
    1DPPC   GL116695  22.082  28.058   3.594  0.0902  0.0290  0.0834
    1DPPC   GL216696  21.871  27.893   3.358 -0.0218 -0.0287  0.2187
    1DPPC   C1A16697  21.912  27.675   3.836 -0.2830 -0.1315  0.4972
    1DPPC   C2A16698  21.865  27.457   4.227  0.1448  0.1799  0.1657
    1DPPC   C3A16699  21.796  27.077   4.355 -0.0948 -0.0186  0.3473
    1DPPC   C4A16700  21.777  26.731   4.545  0.3280 -0.1905 -0.0679
    1DPPC   C1B16701  21.488  27.844   3.633  0.0642 -0.0620 -0.0957
    1DPPC   C2B16702  21.520  27.876   4.101 -0.0109  0.2321 -0.1788
    1DPPC   C3B16703  21.715  27.844   4.552  0.1199  0.1096  0.2268
    1DPPC   C4B16704  21.493  27.761   4.940 -0.1308  0.0470 -0.1318
    1DPPC   NC316705  18.769   4.643   3.818  0.0644 -0.0520  0.0073
    1DPPC   PO416706  18.648   4.776   4.169 -0.4508  0.0969  0.0666
    1DPPC   GL116707  18.460   4.919   4.532  0.1763  0.0672 -0.0656
    1DPPC   GL216708  18.437   4.549   4.608 -0.1484 -0.2227 -0.0557
    1DPPC   C1A16709  18.325   5.065   4.808 -0.0196 -0.1457 -0.0717
    1DPPC   C2A16710  18.149   5.292   5.025  0.4467  0.0768 -0.0205
    1DPPC   C3A16711  18.153   5.669   5.434  0.0803 -0.0136  0.1708
    1DPPC   C4A16712  18.267   6.104   5.564 -0.0212 -0.0995  0.4583
    1DPPC   C1B16713  18.185   4.574   4.969 -0.3492 -0.2073 -0.1593
    1DPPC   C2B16714  18.274   4.876   5.308  0.1909  0.2216  0.0238
    1DPPC   C3B16715  18.386   5.254   5.604  0.0477  0.0561 -0.2476
    1DPPC   C4B16716  18.541   5.656   5.777  0.2334 -0.0253 -0.0605
    1DPPC   NC316717  21.860  10.288   2.853  0.4157 -0.0081  0.1276
    1DPPC   PO416718  22.141   9.899   2.733  0.2587  0.3051 -0.0489
    1DPPC   GL116719  22.237  10.205   3.131 -0.2711  0.0854 -0.0956
    1DPPC   GL216720  22.528  10.410   3.147  0.0017  0.0705 -0.0404
    1DPPC   C1A16721  22.084  10.301   3.463 -0.0467  0.0495 -0.0192
    1DPPC   C2A16722  22.038  10.335   3.911  0.0255 -0.0764 -0.1732
    1DPPC   C3A16723  21.995  10.247   4.385  0.1087  0.1359 -0.2335
    1DPPC   C4A16724  22.238   9.975   4.584 -0.0122 -0.1321  0.0193
    1DPPC   C1B16725  22.518  10.393   3.580  0.0874  0.0950 -0.1033
    1DPPC   C2B16726  22.541  10.437   3.911  0.1265 -0.2617 -0.0036
    1DPPC   C3B16727  22.520  10.349   4.320 -0.0478 -0.1811 -0.0298
    1DPPC   C4B16728  22.554  10.370   4.695 -0.2128 -0.3056  0.0285
    1DPPC   NC316729  15.045   8.170   3.286 -0.0401  0.3988  0.1180
    1DPPC   PO416730  15.371   8.352   3.285  0.1499 -0.0591 -0.0713
    1DPPC   GL116731  15.441   8.565   3.574 -0.2744  0.2500  0.0528
    1DPPC   GL216732  15.774   8.781   3.579  0.2047 -0.1512  0.2594
    1DPPC   C1A16733  15.528   8.497   3.946 -0.2824 -0.1077 -0.2097
    1DPPC   C2A16734  15.552   8.485   4.448 -0.1027  0.0026  0.0325
    1DPPC   C3A16735  15.642   8.718   4.852  0.0263 -0.1191 -0.2374
    1DPPC   C4A16736  15.840   8.752   5.259 -0.1722 -0.0315  0.0716
    1DPPC   C1B16737  15.889   8.874   4.045 -0.1497  0.2478  0.0223
    1DPPC   C2B16738  15.932   8.923   4.533  0.4086  0.1552  0.3089
    1DPPC   C3B16739  15.957   9.107   4.984  0.2129  0.0745  0.2310
    1DPPC   C4B16740  16.174   9.082   5.421 -0.0946  0.0297 -0.0094
    1DPPC   NC316741   9.966  21.727   1.986 -0.1041  0.0871  0.3242
    1DPPC   PO416742   9.661  21.895   2.091  0.1808  0.1490 -0.1381
    1DPPC   GL116743   9.743  22.050   2.432  0.0127  0.4070  0.2105
    1DPPC   GL216744   9.762  22.338   2.508  0.0712 -0.0952 -0.1127
    1DPPC   C1A16745   9.817  22.022   2.822 -0.3705 -0.3274 -0.1654
    1DPPC   C2A16746   9.769  22.209   3.252 -0.3368 -0.1348  0.0170
    1DPPC   C3A16747   9.788  22.583   3.671  0.0771  0.0829 -0.0428
    1DPPC   C4A16748   9.505  22.846   3.923  0.0570  0.0677 -0.2646
    1DPPC   C1B16749   9.867  22.539   2.906 -0.1691 -0.4188 -0.4525
    1DPPC   C2B16750   9.810  22.846   3.184  0.1268 -0.2999 -0.2972
    1DPPC   C3B16751   9.749  23.195   3.521  0.2587  0.0546 -0.4018
    1DPPC   C4B16752   9.782  23.269   3.915  0.2501 -0.2981 -0.0552
    1DPPC   NC316753  15.706  10.834   2.794 -0.1426  0.2096 -0.2572
    1DPPC   PO416754  16.065  10.502   2.867  0.1401 -0.2798  0.1123
    1DPPC   GL116755  16.373  10.593   3.069 -0.1206  0.0539  0.1604
    1DPPC   GL216756  16.556  10.343   3.027  0.3417 -0.0592  0.0272
    1DPPC   C1A16757  16.518  10.634   3.437  0.0942  0.0002 -0.0245
    1DPPC   C2A16758  16.543  10.681   3.809 -0.0075  0.1654  0.0122
    1DPPC   C3A16759  16.488  10.830   4.247 -0.0379  0.3086 -0.1252
    1DPPC   C4A16760  16.512  10.724   4.744 -0.0907  0.2473  0.1165
    1DPPC   C1B16761  16.769  10.179   3.398 -0.0452  0.1117 -0.0261
    1DPPC   C2B16762  16.795  10.110   3.808 -0.0724 -0.2113 -0.0469
    1DPPC   C3B16763  16.835  10.317   4.097  0.0047 -0.0453 -0.2738
    1DPPC   C4B16764  16.774  10.356   4.438 -0.1442  0.2064  0.1820
    1DPPC   NC316765  20.089   4.306   3.651  0.0581  0.2450 -0.2917
    1DPPC   PO416766  19.746   4.442   3.845 -0.0991 -0.0703  0.1043
    1DPPC   GL116767  19.634   4.381   4.274  0.1163  0.0830  0.1792
    1DPPC   GL216768  19.534   4.634   4.391 -0.2544 -0.1984  0.2105
    1DPPC   C1A16769  19.660   4.111   4.516  0.0483  0.1019 -0.0347
    1DPPC   C2A16770  19.671   3.802   4.920  0.2452  0.2428  0.2353
    1DPPC   C3A16771  19.461   3.471   5.174  0.3104 -0.0152  0.1036
    1DPPC   C4A16772  19.350   3.200   5.578 -0.1859 -0.0232  0.1118
    1DPPC   C1B16773  19.476   4.866   4.776 -0.2801 -0.0143  0.1228
    1DPPC   C2B16774  19.601   4.909   5.216 -0.0119  0.0793  0.2881
    1DPPC   C3B16775  19.780   4.571   5.448  0.2939 -0.0099 -0.5559
    1DPPC   C4B16776  20.078   4.674   5.786  0.3173 -0.3321 -0.2427
    1DPPC   NC316777  27.141   7.678   2.450  0.2986  0.0213  0.2010
    1DPPC   PO416778  26.981   7.784   2.778  0.0195  0.0817  0.3578
    1DPPC   GL116779  27.159   7.749   3.115 -0.1642  0.0667  0.0502
    1DPPC   GL216780  26.901   7.565   3.435 -0.1343 -0.0285 -0.2356
    1DPPC   C1A16781  27.397   7.619   3.482 -0.1190  0.0079 -0.1147
    1DPPC   C2A16782  27.649   7.666   3.830 -0.0125  0.0362 -0.1143
    1DPPC   C3A16783  27.833   7.351   3.983  0.1203  0.0283  0.0669
    1DPPC   C4A16784  28.247   7.079   3.891  0.0875  0.1284 -0.1513
    1DPPC   C1B16785  27.128   7.645   3.927 -0.0114 -0.1691 -0.3099
    1DPPC   C2B16786  27.405   7.569   4.296  0.1388 -0.2757 -0.0907
    1DPPC   C3B16787  27.592   7.907   4.402  0.1696 -0.2208  0.0714
    1DPPC   C4B16788  28.021   8.064   4.594  0.1411  0.1527  0.1441
    1DPPC   NC316789  18.740   5.798   3.096  0.1500 -0.1278 -0.1311
    1DPPC   PO416790  18.331   5.809   3.167  0.2169 -0.0348  0.0367
    1DPPC   GL116791  18.580   5.925   3.600  0.3057 -0.0939 -0.2107
    1DPPC   GL216792  18.530   5.621   3.800  0.2446  0.1808  0.1770
    1DPPC   C1A16793  18.570   6.126   4.018  0.0385  0.0351 -0.3193
    1DPPC   C2A16794  18.641   6.098   4.475 -0.0337 -0.1455 -0.0909
    1DPPC   C3A16795  18.632   6.088   4.831  0.2953 -0.1015  0.1092
    1DPPC   C4A16796  18.612   5.882   5.177 -0.1548 -0.2262 -0.1475
    1DPPC   C1B16797  18.636   5.670   4.184  0.4162 -0.1275 -0.0955
    1DPPC   C2B16798  18.713   5.392   4.646 -0.0589 -0.0200  0.0296
    1DPPC   C3B16799  18.787   5.426   5.023  0.0183 -0.0577  0.0301
    1DPPC   C4B16800  18.804   5.466   5.419  0.0538 -0.2090 -0.1127
    1DPPC   NC316801  10.583  28.361   3.168 -0.0310  0.0213  0.1136
    1DPPC   PO416802  10.329  28.018   2.935 -0.0430 -0.0966 -0.0905
    1DPPC   GL116803  10.496  27.802   3.296  0.0561 -0.0797  0.1351
    1DPPC   GL216804  10.819  27.788   3.160 -0.2617 -0.0997  0.0874
    1DPPC   C1A16805  10.729  27.844   3.639 -0.0920 -0.1089 -0.0645
    1DPPC   C2A16806  10.861  27.762   4.031  0.0657  0.1606  0.0693
    1DPPC   C3A16807  11.103  27.928   4.339 -0.0180 -0.0558  0.0762
    1DPPC   C4A16808  11.166  28.278   4.363 -0.2586 -0.2393 -0.1449
    1DPPC   C1B16809  11.158  27.500   3.385 -0.0016 -0.0755  0.1937
    1DPPC   C2B16810  11.339  27.277   3.853 -0.3113 -0.1345 -0.1905
    1DPPC   C3B16811  11.169  26.923   4.181 -0.2769  0.1072 -0.0577
    1DPPC   C4B16812  11.111  26.770   4.561  0.0737 -0.4438  0.1387
    1DPPC   NC316813   5.711  29.816   2.228 -0.2821  0.1786  0.1561
    1DPPC   PO416814   5.401  29.756   2.492 -0.1269 -0.1554  0.0168
    1DPPC   GL116815   5.510  29.665   2.834  0.1703 -0.1471 -0.2761
    1DPPC   GL216816   5.350  29.328   3.044 -0.2079  0.0099 -0.1741
    1DPPC   C1A16817   5.469  29.834   3.198  0.0723  0.0351 -0.0236
    1DPPC   C2A16818   5.192   0.060   3.514  0.0406 -0.0684 -0.2989
    1DPPC   C3A16819   5.068   0.331   3.819  0.1386  0.0792 -0.1353
    1DPPC   C4A16820   4.949   0.654   4.090 -0.0555  0.1752  0.3128
    1DPPC   C1B16821   5.236  29.460   3.508  0.1177  0.1539 -0.2220
    1DPPC   C2B16822   5.045  29.549   3.897  0.0645 -0.2261  0.3726
    1DPPC   C3B16823   4.625  29.644   4.139 -0.1251  0.2663  0.0948
    1DPPC   C4B16824   4.284  29.801   4.135 -0.0601 -0.1663 -0.1889
    1DPPC   NC316825  13.338   7.523   3.922 -0.1285 -0.4034 -0.1287
    1DPPC   PO416826  13.694   7.565   3.632  0.1411  0.7375 -0.0281
    1DPPC   GL116827  13.822   7.592   4.088  0.2506 -0.0192  0.0412
    1DPPC   GL216828  14.119   7.732   4.169  0.0927  0.2855 -0.2436
    1DPPC   C1A16829  13.632   7.551   4.583  0.2354 -0.1926 -0.0653
    1DPPC   C2A16830  13.452   7.696   5.003  0.0542  0.1426 -0.0065
    1DPPC   C3A16831  13.309   7.715   5.370 -0.0473 -0.2215 -0.2033
    1DPPC   C4A16832  13.325   7.842   5.745 -0.0060  0.0388 -0.0166
    1DPPC   C1B16833  14.145   7.686   4.645  0.0607  0.1087 -0.1924
    1DPPC   C2B16834  14.400   7.758   5.037 -0.0641  0.0086  0.0125
    1DPPC   C3B16835  14.754   7.907   5.151  0.0672  0.2296 -0.0064
    1DPPC   C4B16836  14.907   7.752   5.506 -0.0348 -0.0534 -0.2556
    1DPPC   NC316837  23.093  12.831   2.492  0.1694 -0.1974 -0.0130
    1DPPC   PO416838  23.450  12.904   2.660  0.0999  0.2597 -0.1120
    1DPPC   GL116839  23.569  13.091   3.024 -0.1694  0.0867 -0.4187
    1DPPC   GL216840  23.798  13.297   2.972 -0.0300  0.0538 -0.0005
    1DPPC   C1A16841  23.280  13.128   3.397  0.0741 -0.0369 -0.4081
    1DPPC   C2A16842  23.297  13.220   3.831 -0.2156 -0.0431  0.2565
    1DPPC   C3A16843  23.348  13.059   4.253  0.0433 -0.1493 -0.0297
    1DPPC   C4A16844  23.438  13.176   4.687 -0.1353  0.0752  0.0078
    1DPPC   C1B16845  23.779  13.261   3.394  0.2544  0.4835 -0.2161
    1DPPC   C2B16846  23.830  13.232   3.775 -0.1789 -0.2975  0.1405
    1DPPC   C3B16847  23.784  13.262   4.133  0.1167 -0.0256 -0.2623
    1DPPC   C4B16848  23.978  13.378   4.576 -0.0093  0.1652 -0.1569
    1DPPC   NC316849  23.754   7.715   3.519 -0.3387  0.0490 -0.1980
    1DPPC   PO416850  23.305   7.750   3.491 -0.0099 -0.0379  0.2652
    1DPPC   GL116851  23.257   7.859   3.908  0.0722 -0.2316 -0.0075
    1DPPC   GL216852  23.147   7.638   4.043 -0.4736  0.1011 -0.0804
    1DPPC   C1A16853  23.250   8.117   4.303 -0.1736 -0.0413 -0.1539
    1DPPC   C2A16854  23.354   8.377   4.642 -0.0438 -0.0113 -0.1695
    1DPPC   C3A16855  23.304   8.531   4.985 -0.3118  0.1410  0.0236
    1DPPC   C4A16856  23.223   8.756   5.324  0.0637  0.0360  0.2922
    1DPPC   C1B16857  23.214   7.658   4.459 -0.1255  0.0436  0.0341
    1DPPC   C2B16858  23.259   7.844   4.767 -0.0530  0.1336 -0.1927
    1DPPC   C3B16859  22.955   8.141   4.908 -0.1314  0.2534 -0.1411
    1DPPC   C4B16860  22.965   8.348   5.310 -0.0971  0.0662 -0.3425
    1DPPC   NC316861  23.482   6.923   3.205 -0.1583 -0.3021  0.1362
    1DPPC   PO416862  23.859   7.184   3.314 -0.1961  0.0167 -0.3055
    1DPPC   GL116863  23.965   7.263   3.708  0.0909 -0.0237  0.0282
    1DPPC   GL216864  23.782   6.991   3.933  0.1462  0.2460  0.2963
    1DPPC   C1A16865  24.152   7.299   4.104  0.3063 -0.0263 -0.2990
    1DPPC   C2A16866  24.341   7.493   4.496  0.0232 -0.2665 -0.0720
    1DPPC   C3A16867  24.618   7.692   4.621 -0.1190  0.2822 -0.0254
    1DPPC   C4A16868  24.891   7.941   4.885 -0.1954  0.5242  0.2207
    1DPPC   C1B16869  23.628   6.850   4.310 -0.0721  0.4590 -0.2848
    1DPPC   C2B16870  23.716   6.949   4.730  0.2385 -0.1743  0.0684
    1DPPC   C3B16871  23.732   7.003   5.191 -0.2083 -0.1413  0.2460
    1DPPC   C4B16872  23.632   7.253   5.609 -0.0089 -0.1005 -0.2238
    1DPPC   NC316873  25.537  17.929   2.979  0.2577  0.2358  0.1084
    1DPPC   PO416874  25.826  17.738   2.762  0.0538  0.0382  0.0495
    1DPPC   GL116875  25.748  17.452   3.079 -0.1245  0.0869 -0.3165
    1DPPC   GL216876  25.554  17.147   3.184 -0.3308 -0.2159  0.4794
    1DPPC   C1A16877  25.721  17.417   3.610 -0.1256 -0.0555 -0.0123
    1DPPC   C2A16878  25.492  17.396   4.021  0.1547  0.0996 -0.1613
    1DPPC   C3A16879  25.375  17.779   4.288  0.3264  0.2404  0.1288
    1DPPC   C4A16880  25.548  18.131   4.323  0.2263 -0.3525  0.0704
    1DPPC   C1B16881  25.479  16.983   3.632  0.1811 -0.1167 -0.1443
    1DPPC   C2B16882  25.259  16.917   3.915  0.1777  0.0905 -0.2221
    1DPPC   C3B16883  25.336  16.642   4.256  0.1400 -0.0655  0.2043
    1DPPC   C4B16884  25.446  16.614   4.714  0.2158 -0.3389  0.0998
    1DPPC   NC316885  16.236  12.469   2.756 -0.0501  0.0535 -0.2350
    1DPPC   PO416886  16.483  12.863   2.514  0.0826  0.0553  0.1909
    1DPPC   GL116887  16.204  12.912   2.915 -0.3845  0.1578 -0.0947
    1DPPC   GL216888  15.869  12.825   2.974 -0.0426  0.1161  0.1312
    1DPPC   C1A16889  16.212  12.847   3.331 -0.0556 -0.2617 -0.1897
    1DPPC   C2A16890  16.212  12.654   3.830  0.1530 -0.3581  0.0831
    1DPPC   C3A16891  16.055  12.542   4.242 -0.4775 -0.1624  0.1873
    1DPPC   C4A16892  15.933  12.643   4.713  0.4393 -0.0777 -0.0478
    1DPPC   C1B16893  15.670  12.682   3.359 -0.0516  0.1989 -0.2308
    1DPPC   C2B16894  15.622  12.672   3.755 -0.0142  0.3354  0.3140
    1DPPC   C3B16895  15.367  12.890   4.219  0.0032  0.2753 -0.0858
    1DPPC   C4B16896  14.964  12.833   4.401  0.3296 -0.1400  0.1957
    1DPPC   NC316897  17.868   4.315   3.909 -0.0140 -0.1730  0.2705
    1DPPC   PO416898  18.055   4.013   4.230 -0.2439  0.3020 -0.1667
    1DPPC   GL116899  18.326   4.058   4.529 -0.1486  0.0394  0.1405
    1DPPC   GL216900  18.609   3.824   4.531  0.4470 -0.0847  0.1597
    1DPPC   C1A16901  18.354   4.012   4.922 -0.1666  0.0124  0.1925
    1DPPC   C2A16902  18.350   4.063   5.477 -0.0865  0.0011  0.1725
    1DPPC   C3A16903  18.248   4.440   5.525  0.0679  0.3451  0.0200
    1DPPC   C4A16904  18.454   4.741   5.805  0.4369  0.1330  0.0967
    1DPPC   C1B16905  18.642   3.535   4.873 -0.0264 -0.0353  0.1279
    1DPPC   C2B16906  18.529   3.572   5.264  0.0128 -0.3833 -0.2572
    1DPPC   C3B16907  18.337   3.460   5.664 -0.0014 -0.1723  0.1998
    1DPPC   C4B16908  18.010   3.410   5.896 -0.1594  0.1142  0.0863
    1DPPC   NC316909  20.984  12.037   2.857  0.0786  0.1213  0.2091
    1DPPC   PO416910  21.064  12.504   2.870 -0.0265 -0.2383  0.0821
    1DPPC   GL116911  20.887  12.350   3.201  0.0004  0.2610 -0.2335
    1DPPC   GL216912  20.614  12.130   3.133  0.3087  0.1806 -0.5237
    1DPPC   C1A16913  20.832  12.420   3.581 -0.2600 -0.2648 -0.2391
    1DPPC   C2A16914  20.843  12.575   4.033  0.0266  0.0261 -0.1433
    1DPPC   C3A16915  20.709  12.775   4.428 -0.1969 -0.2727 -0.1081
    1DPPC   C4A16916  20.709  13.169   4.744  0.2396  0.0214  0.0654
    1DPPC   C1B16917  20.471  12.009   3.590 -0.0863 -0.0411  0.0489
    1DPPC   C2B16918  20.429  12.141   3.979 -0.0417  0.3171  0.3809
    1DPPC   C3B16919  20.417  12.259   4.334 -0.1952  0.2018 -0.2756
    1DPPC   C4B16920  20.524  12.094   4.694 -0.2717 -0.0490 -0.1115
    1DPPC   NC316921   1.542   0.266   2.199 -0.0392 -0.1046  0.0687
    1DPPC   PO416922   1.314   0.011   2.460  0.2995 -0.1222  0.1463
    1DPPC   GL116923   0.986  29.715   2.619  0.0837 -0.4073  0.1473
    1DPPC   GL216924   0.842   0.128   2.732 -0.0313  0.0411 -0.0227
    1DPPC   C1A16925   0.798  29.434   2.940 -0.1914  0.0032  0.1911
    1DPPC   C2A16926   0.819  29.368   3.447 -0.4829 -0.2815  0.2069
    1DPPC   C3A16927   0.911  29.446   3.855 -0.0149  0.2782  0.2971
    1DPPC   C4A16928   1.295  29.206   4.092  0.2163 -0.0029  0.1272
    1DPPC   C1B16929   0.922  29.835   3.132 -0.0777 -0.0461 -0.0061
    1DPPC   C2B16930   1.197  29.732   3.481 -0.0429 -0.1653  0.0189
    1DPPC   C3B16931   1.420  29.496   3.658 -0.0369  0.0579  0.0188
    1DPPC   C4B16932   1.666  29.091   3.799 -0.2688  0.3304  0.2491
    1DPPC   NC316933   2.679   6.876   2.953 -0.1155 -0.2338 -0.0417
    1DPPC   PO416934   2.907   6.630   3.241  0.1040 -0.0112 -0.0256
    1DPPC   GL116935   2.813   6.913   3.582 -0.0011  0.0130  0.0858
    1DPPC   GL216936   2.949   6.773   3.884 -0.0022 -0.0239  0.0096
    1DPPC   C1A16937   2.430   7.207   3.704 -0.1456  0.0910 -0.2584
    1DPPC   C2A16938   2.187   7.302   4.144  0.1034  0.2800  0.2229
    1DPPC   C3A16939   2.131   7.651   4.486  0.0261  0.2102 -0.0578
    1DPPC   C4A16940   2.457   7.800   4.809  0.2094 -0.2927  0.1399
    1DPPC   C1B16941   2.718   6.655   4.295 -0.0992  0.1777  0.0533
    1DPPC   C2B16942   2.412   6.492   4.632 -0.0886  0.0507  0.0803
    1DPPC   C3B16943   2.036   6.467   4.835 -0.0709  0.1181 -0.2165
    1DPPC   C4B16944   1.636   6.244   4.697  0.3033  0.1542  0.0450
    1DPPC   NC316945  21.843  11.437   2.722  0.1320 -0.0309  0.1295
    1DPPC   PO416946  22.151  11.700   2.831 -0.0437  0.3525 -0.0168
    1DPPC   GL116947  22.467  11.661   3.055 -0.0623  0.1810 -0.0158
    1DPPC   GL216948  22.654  11.477   2.818  0.0494 -0.1890 -0.0352
    1DPPC   C1A16949  22.535  11.930   3.429 -0.0621 -0.1149  0.0037
    1DPPC   C2A16950  22.538  12.187   3.829  0.0574  0.1216 -0.1156
    1DPPC   C3A16951  22.302  12.204   4.217  0.1374 -0.1558  0.1747
    1DPPC   C4A16952  21.987  12.168   4.602 -0.2165  0.2925  0.0021
    1DPPC   C1B16953  22.938  11.413   3.212 -0.1522  0.0551  0.0339
    1DPPC   C2B16954  22.802  11.526   3.602  0.2562  0.1022 -0.1633
    1DPPC   C3B16955  22.727  11.753   3.881  0.2486 -0.0357  0.0030
    1DPPC   C4B16956  22.747  11.924   4.247 -0.0139 -0.3043  0.0193
    1DPPC   NC316957  16.176  11.579   2.703  0.0402 -0.0210 -0.1004
    1DPPC   PO416958  15.822  11.400   2.739 -0.1394  0.1591  0.2560
    1DPPC   GL116959  15.553  11.278   3.095 -0.0163  0.2098 -0.0538
    1DPPC   GL216960  15.664  11.091   3.325  0.2326  0.0726  0.1146
    1DPPC   C1A16961  15.295  11.502   3.269 -0.1322  0.1210 -0.0913
    1DPPC   C2A16962  15.415  11.660   3.678 -0.2200  0.1918  0.1389
    1DPPC   C3A16963  15.305  11.477   4.080 -0.0051 -0.0785 -0.2505
    1DPPC   C4A16964  15.119  11.659   4.444  0.0169  0.2187  0.0341
    1DPPC   C1B16965  15.702  11.216   3.700 -0.2702 -0.0951  0.3695
    1DPPC   C2B16966  15.679  11.174   4.096  0.2187 -0.1032  0.1362
    1DPPC   C3B16967  15.384  11.143   4.480  0.3210  0.0786  0.0502
    1DPPC   C4B16968  15.197  10.928   4.846  0.0923  0.0438  0.0090
    1DPPC   NC316969  24.842  17.838   2.214 -0.0998 -0.1576  0.0804
    1DPPC   PO416970  24.888  17.564   2.597  0.1971 -0.0812 -0.0615
    1DPPC   GL116971  24.801  17.564   3.042 -0.0114  0.0955 -0.1269
    1DPPC   GL216972  25.126  17.518   3.176  0.2274  0.0212 -0.2301
    1DPPC   C1A16973  24.717  17.363   3.457  0.1505  0.1187 -0.0017
    1DPPC   C2A16974  24.815  17.056   3.730  0.0907  0.0702  0.4144
    1DPPC   C3A16975  24.819  16.955   4.151  0.0853  0.1305 -0.0136
    1DPPC   C4A16976  24.703  16.814   4.496 -0.3701  0.3362 -0.1236
    1DPPC   C1B16977  25.177  17.446   3.595  0.0062 -0.0577 -0.1339
    1DPPC   C2B16978  24.917  17.513   3.923  0.0517 -0.2085 -0.0821
    1DPPC   C3B16979  24.950  17.501   4.372  0.0398 -0.1574 -0.0026
    1DPPC   C4B16980  24.731  17.745   4.743  0.1520  0.0741 -0.0776
    1DPPC   NC316981  19.398   6.953   3.665  0.1084  0.0558 -0.0234
    1DPPC   PO416982  19.362   6.498   3.764 -0.2738 -0.1508  0.1842
    1DPPC   GL116983  19.238   6.682   4.100  0.1334  0.1110 -0.1931
    1DPPC   GL216984  19.453   6.942   4.171 -0.0457 -0.0971  0.0787
    1DPPC   C1A16985  19.235   6.708   4.518  0.3100 -0.1175  0.0549
    1DPPC   C2A16986  19.229   6.829   4.880 -0.2241 -0.0327  0.1669
    1DPPC   C3A16987  19.007   6.845   5.270 -0.0147 -0.0103 -0.0284
    1DPPC   C4A16988  19.009   6.839   5.658 -0.1909 -0.1606 -0.3874
    1DPPC   C1B16989  19.683   6.908   4.511  0.5826 -0.1281  0.1828
    1DPPC   C2B16990  19.723   7.034   4.926 -0.1557  0.0946 -0.0393
    1DPPC   C3B16991  19.780   7.156   5.323 -0.3403  0.0830  0.1266
    1DPPC   C4B16992  19.834   7.051   5.789 -0.0077  0.0857  0.1911
    1DPPC   NC316993  26.188  14.775   2.400 -0.0144  0.0106  0.0737
    1DPPC   PO416994  26.059  15.108   2.747  0.0785  0.0813 -0.1840
    1DPPC   GL116995  26.342  14.998   3.143 -0.0994  0.1624  0.0097
    1DPPC   GL216996  26.635  14.873   3.166  0.0220 -0.0998 -0.0548
    1DPPC   C1A16997  26.348  15.148   3.567 -0.0332 -0.0421 -0.2832
    1DPPC   C2A16998  26.290  15.147   4.000  0.1214  0.0148 -0.0642
    1DPPC   C3A16999  26.209  15.195   4.359  0.1394  0.1562 -0.0191
    1DPPC   C4A17000  26.157  15.183   4.870 -0.0850  0.3256  0.1576
    1DPPC   C1B17001  26.772  14.863   3.544  0.1243  0.3441 -0.1034
    1DPPC   C2B17002  26.695  14.853   3.987 -0.1809  0.1215 -0.1073
    1DPPC   C3B17003  26.471  14.792   4.345 -0.0045 -0.0487 -0.1229
    1DPPC   C4B17004  26.333  14.746   4.813 -0.0824 -0.3742  0.1168
    1DPPC   NC317005  28.852  10.866   2.550  0.1028  0.0530  0.0513
    1DPPC   PO417006  28.823  11.301   2.632 -0.1823  0.2613 -0.1356
    1DPPC   GL117007  28.585  11.099   3.004 -0.1799  0.0308  0.0209
    1DPPC   GL217008  28.587  10.718   2.986  0.0957 -0.0636  0.1554
    1DPPC   C1A17009  28.450  11.035   3.411  0.2025  0.2253 -0.0303
    1DPPC   C2A17010  28.291  10.859   3.759 -0.1874 -0.0020  0.0356
    1DPPC   C3A17011  28.234  10.665   4.181 -0.3636 -0.0498  0.1086
    1DPPC   C4A17012  28.225  10.216   4.289 -0.2852 -0.0271  0.0503
    1DPPC   C1B17013  28.727  10.516   3.410 -0.0138  0.1652  0.3663
    1DPPC   C2B17014  28.576  10.367   3.754  0.0587 -0.0174  0.2172
    1DPPC   C3B17015  28.394  10.002   3.895  0.0410  0.0660 -0.2075
    1DPPC   C4B17016  27.966   9.906   4.001  0.3026  0.0176  0.0058
    1DPPC   NC317017  17.120  11.303   2.745 -0.1182  0.3163 -0.2567
    1DPPC   PO417018  16.693  11.605   2.767 -0.1436  0.0137 -0.0118
    1DPPC   GL117019  16.846  11.915   3.119  0.2055 -0.3173 -0.1077
    1DPPC   GL217020  17.115  12.130   3.079 -0.1980  0.2983  0.0651
    1DPPC   C1A17021  16.747  12.010   3.534 -0.0267  0.0881 -0.0717
    1DPPC   C2A17022  16.691  12.109   4.019  0.4378  0.1615 -0.1955
    1DPPC   C3A17023  16.527  12.208   4.456  0.0356 -0.0296  0.2202
    1DPPC   C4A17024  16.426  12.472   4.823 -0.1813  0.2562 -0.0815
    1DPPC   C1B17025  17.209  12.161   3.452  0.3931 -0.0044 -0.0961
    1DPPC   C2B17026  17.175  12.310   3.838  0.0759 -0.1872 -0.2153
    1DPPC   C3B17027  17.033  12.340   4.325  0.4461  0.2937 -0.0322
    1DPPC   C4B17028  16.896  12.559   4.670  0.1511 -0.1317 -0.0907
    1DPPC   NC317029  21.464  14.626   2.263  0.0441  0.2551  0.1967
    1DPPC   PO417030  21.411  15.079   2.150  0.0117  0.1387  0.2561
    1DPPC   GL117031  21.464  15.034   2.543  0.1262 -0.0353 -0.0705
    1DPPC   GL217032  21.439  14.806   2.742 -0.0875 -0.2276  0.1858
    1DPPC   C1A17033  21.475  15.374   2.836 -0.0911 -0.2183  0.0031
    1DPPC   C2A17034  21.573  15.625   3.146  0.0318 -0.1695 -0.3491
    1DPPC   C3A17035  21.737  15.849   3.457  0.3281  0.0050 -0.1611
    1DPPC   C4A17036  21.986  16.117   3.665  0.0756  0.1511 -0.0051
    1DPPC   C1B17037  21.345  14.711   3.217  0.1652 -0.3560 -0.0125
    1DPPC   C2B17038  21.369  14.815   3.676 -0.0559  0.0697  0.0308
    1DPPC   C3B17039  21.558  14.954   4.108  0.0999  0.0855 -0.0743
    1DPPC   C4B17040  21.333  14.891   4.468  0.1414  0.0030  0.1192
    1DPPC   NC317041  21.282   9.780   2.699 -0.0091  0.0122  0.1698
    1DPPC   PO417042  20.854   9.885   2.924  0.0243  0.0468  0.0015
    1DPPC   GL117043  20.689   9.907   3.378 -0.1491 -0.2439  0.2319
    1DPPC   GL217044  20.517  10.152   3.453  0.2527 -0.0747  0.0494
    1DPPC   C1A17045  20.725   9.563   3.723 -0.0362 -0.4718  0.0153
    1DPPC   C2A17046  20.754   9.357   4.163  0.0410  0.2157  0.2664
    1DPPC   C3A17047  20.718   9.262   4.531 -0.2565 -0.0426  0.4360
    1DPPC   C4A17048  20.625   9.375   4.928  0.0293 -0.1534  0.1295
    1DPPC   C1B17049  20.752  10.104   3.910  0.1174 -0.2864  0.1669
    1DPPC   C2B17050  20.637  10.210   4.265 -0.1345  0.0234  0.2951
    1DPPC   C3B17051  20.793  10.173   4.575  0.0742  0.1729  0.1352
    1DPPC   C4B17052  20.685  10.316   4.959  0.0241 -0.0622  0.2523
    1DPPC   NC317053  25.144   8.269   3.162  0.1313 -0.0223  0.0200
    1DPPC   PO417054  25.345   8.596   3.047  0.2234 -0.1720 -0.1719
    1DPPC   GL117055  25.388   8.519   3.552 -0.0931  0.1239  0.0378
    1DPPC   GL217056  25.670   8.552   3.679  0.0541  0.0586 -0.2261
    1DPPC   C1A17057  25.255   8.692   3.905 -0.0015  0.2496  0.0512
    1DPPC   C2A17058  25.392   8.737   4.338 -0.0424  0.1388  0.0769
    1DPPC   C3A17059  25.524   8.644   4.811 -0.0342  0.0585  0.2082
    1DPPC   C4A17060  25.739   8.780   5.087 -0.0437 -0.0852  0.0349
    1DPPC   C1B17061  25.677   8.227   4.046 -0.0290  0.0079 -0.2345
    1DPPC   C2B17062  25.744   8.315   4.498  0.1804 -0.0101 -0.4446
    1DPPC   C3B17063  26.005   8.466   4.752 -0.2319  0.1957 -0.2527
    1DPPC   C4B17064  26.347   8.353   4.954 -0.2483  0.0436 -0.0623
    1DPPC   NC317065  17.434  12.610   2.823  0.0914  0.1693  0.2499
    1DPPC   PO417066  17.239  13.063   2.802  0.1866  0.0192  0.0880
    1DPPC   GL117067  17.181  12.987   3.203 -0.1171 -0.2789 -0.1208
    1DPPC   GL217068  17.121  12.663   3.245 -0.0867  0.0482  0.1246
    1DPPC   C1A17069  16.882  13.088   3.429  0.0439  0.2692  0.0009
    1DPPC   C2A17070  16.539  13.187   3.690 -0.0477  0.1400  0.3195
    1DPPC   C3A17071  16.330  13.007   4.102  0.1374 -0.1192  0.2990
    1DPPC   C4A17072  16.461  12.749   4.441 -0.1522  0.1805  0.1676
    1DPPC   C1B17073  17.275  12.690   3.564  0.3085 -0.0600  0.1307
    1DPPC   C2B17074  17.229  12.972   3.833 -0.3144  0.1306  0.0756
    1DPPC   C3B17075  16.942  13.231   3.908  0.1459 -0.0635  0.2075
    1DPPC   C4B17076  16.646  13.361   4.211 -0.0016 -0.1980 -0.1031
    1DPPC   NC317077  21.862   1.708   3.675  0.1337  0.4306 -0.1227
    1DPPC   PO417078  21.777   2.174   3.688  0.0561 -0.0130  0.0153
    1DPPC   GL117079  21.771   2.130   4.044 -0.0167  0.0443  0.0854
    1DPPC   GL217080  21.573   1.807   4.159 -0.0736 -0.0752  0.0991
    1DPPC   C1A17081  21.885   2.347   4.487  0.2859  0.3478  0.2376
    1DPPC   C2A17082  21.771   2.593   4.771 -0.0198  0.1106  0.0071
    1DPPC   C3A17083  21.807   2.607   5.255 -0.0963 -0.0186 -0.1417
    1DPPC   C4A17084  21.644   2.698   5.641  0.1772 -0.0932 -0.1053
    1DPPC   C1B17085  21.475   1.669   4.502  0.0605 -0.3246 -0.0651
    1DPPC   C2B17086  21.460   1.540   4.959 -0.2842 -0.3220 -0.1775
    1DPPC   C3B17087  21.170   1.296   5.381  0.2127  0.0183 -0.1317
    1DPPC   C4B17088  20.838   1.211   5.439 -0.1121 -0.2867  0.0866
    1DPPC   NC317089   6.271   3.007   3.045  0.3839 -0.0378 -0.0487
    1DPPC   PO417090   5.878   3.041   3.138  0.1817 -0.0012 -0.0511
    1DPPC   GL117091   5.678   3.162   3.511  0.1143  0.3308  0.0222
    1DPPC   GL217092   5.673   3.450   3.393  0.0857  0.0690 -0.3968
    1DPPC   C1A17093   5.466   3.285   3.861  0.3019 -0.3039  0.0936
    1DPPC   C2A17094   5.474   3.224   4.175  0.0346  0.0701 -0.2417
    1DPPC   C3A17095   5.722   2.916   4.457 -0.0997 -0.1381  0.0472
    1DPPC   C4A17096   5.920   2.631   4.492 -0.1731  0.0151 -0.0364
    1DPPC   C1B17097   5.875   3.584   3.718  0.0924 -0.2857 -0.4701
    1DPPC   C2B17098   6.089   3.744   4.025  0.0886  0.0525 -0.3338
    1DPPC   C3B17099   5.944   3.822   4.531 -0.0158  0.0771 -0.1318
    1DPPC   C4B17100   6.010   3.847   4.974 -0.1395  0.1312 -0.0959
    1DPPC   NC317101  20.577  12.836   2.537 -0.1995 -0.0499  0.0345
    1DPPC   PO417102  20.866  13.167   2.532 -0.2009  0.2290  0.1071
    1DPPC   GL117103  20.738  13.382   2.865  0.0698  0.1423  0.1636
    1DPPC   GL217104  20.474  13.468   2.994 -0.0454  0.2865 -0.1448
    1DPPC   C1A17105  21.057  13.712   3.070 -0.0335 -0.0175  0.3173
    1DPPC   C2A17106  21.045  13.869   3.499  0.1648 -0.0169 -0.0865
    1DPPC   C3A17107  21.161  13.910   3.873  0.1709 -0.0797  0.4552
    1DPPC   C4A17108  21.175  13.736   4.333  0.2078 -0.3388  0.0994
    1DPPC   C1B17109  20.598  13.617   3.410 -0.0074  0.1766  0.4098
    1DPPC   C2B17110  20.618  13.800   3.743 -0.0673  0.0399  0.3359
    1DPPC   C3B17111  20.645  14.011   4.129 -0.0366  0.4712 -0.0292
    1DPPC   C4B17112  20.777  14.178   4.580  0.0355  0.1853  0.1581
    1DPPC   NC317113  20.195  12.097   2.664 -0.1903  0.2596  0.0364
    1DPPC   PO417114  20.166  12.563   2.760  0.0778  0.0729 -0.0116
    1DPPC   GL117115  20.196  12.372   3.200 -0.0816  0.1267 -0.1273
    1DPPC   GL217116  19.983  12.194   3.147 -0.1507 -0.0593  0.1473
    1DPPC   C1A17117  20.227  12.474   3.615  0.0520 -0.2856 -0.1592
    1DPPC   C2A17118  20.279  12.616   3.942  0.0032  0.0524 -0.1003
    1DPPC   C3A17119  20.192  12.725   4.409  0.1525  0.0530 -0.0193
    1DPPC   C4A17120  20.212  13.098   4.742  0.0078  0.1099 -0.1320
    1DPPC   C1B17121  19.885  12.108   3.590  0.0360 -0.0646  0.1207
    1DPPC   C2B17122  19.952  12.202   4.088  0.0913 -0.0826 -0.2403
    1DPPC   C3B17123  19.946  12.131   4.517  0.1776  0.0340 -0.2532
    1DPPC   C4B17124  19.917  12.315   4.954  0.0598 -0.1016  0.1010
    1DPPC   NC317125  14.740   3.986   3.992 -0.0198  0.2312  0.1765
    1DPPC   PO417126  14.626   3.586   4.154  0.1324 -0.1708 -0.1460
    1DPPC   GL117127  14.677   3.585   4.628 -0.0415  0.2892  0.1541
    1DPPC   GL217128  14.919   3.434   4.714 -0.0444  0.0949  0.1690
    1DPPC   C1A17129  14.396   3.805   4.934 -0.0567  0.3521  0.0771
    1DPPC   C2A17130  14.261   3.787   5.272  0.1436  0.3686  0.0124
    1DPPC   C3A17131  14.042   3.471   5.580 -0.1013 -0.2587  0.2398
    1DPPC   C4A17132  14.331   3.173   5.871 -0.0978  0.0569 -0.0654
    1DPPC   C1B17133  14.693   3.441   5.158  0.2078  0.1721  0.0708
    1DPPC   C2B17134  14.566   3.424   5.511 -0.1633  0.1780 -0.2304
    1DPPC   C3B17135  14.792   3.517   5.884  0.1015  0.0410  0.0804
    1DPPC   C4B17136  15.051   3.697   6.123  0.3061  0.0985  0.3558
    1DPPC   NC317137  18.637   8.425   3.415  0.0914  0.2444  0.1137
    1DPPC   PO417138  18.463   8.001   3.360 -0.2813 -0.1063  0.2473
    1DPPC   GL117139  18.367   7.921   3.701 -0.1442  0.1507 -0.1636
    1DPPC   GL217140  18.702   7.731   3.816  0.2634  0.0027 -0.6570
    1DPPC   C1A17141  18.531   8.078   4.180 -0.0067 -0.0169  0.2463
    1DPPC   C2A17142  18.670   8.221   4.492  0.1044 -0.1355  0.0427
    1DPPC   C3A17143  18.557   8.120   4.888  0.1518 -0.1740  0.0118
    1DPPC   C4A17144  18.444   8.023   5.313  0.2396  0.1219 -0.1020
    1DPPC   C1B17145  18.963   7.611   4.171  0.0669  0.0158 -0.0246
    1DPPC   C2B17146  19.127   7.775   4.488  0.0870 -0.0268  0.0900
    1DPPC   C3B17147  19.150   8.167   4.606 -0.0285 -0.0646 -0.0792
    1DPPC   C4B17148  18.962   8.479   4.940  0.1815  0.1698 -0.1056
    1DPPC   NC317149  14.222   3.381   3.886 -0.1149 -0.1971  0.2426
    1DPPC   PO417150  13.832   3.638   3.875 -0.1596  0.2089 -0.0104
    1DPPC   GL117151  13.783   3.842   4.377 -0.1064 -0.2430 -0.0449
    1DPPC   GL217152  13.983   4.049   4.625 -0.3093 -0.5052  0.0534
    1DPPC   C1A17153  13.474   3.751   4.752  0.0472 -0.3153 -0.0427
    1DPPC   C2A17154  13.459   4.095   5.002 -0.2008  0.1093  0.4118
    1DPPC   C3A17155  13.298   4.247   5.375  0.0378  0.0065 -0.1687
    1DPPC   C4A17156  13.093   4.637   5.544 -0.2342 -0.2989  0.1484
    1DPPC   C1B17157  13.913   3.873   4.984  0.1961  0.0869 -0.0800
    1DPPC   C2B17158  13.649   3.762   5.357  0.1004 -0.3935 -0.1842
    1DPPC   C3B17159  13.251   3.810   5.636 -0.1871  0.0703  0.2288
    1DPPC   C4B17160  13.133   3.710   5.963  0.2029  0.1164 -0.1435
    1DPPC   NC317161  26.377  13.207   2.356  0.1653 -0.2352  0.0705
    1DPPC   PO417162  25.924  13.362   2.558 -0.0531 -0.0944 -0.2997
    1DPPC   GL117163  25.915  13.346   2.985  0.0879 -0.0463  0.0302
    1DPPC   GL217164  25.923  12.989   3.072  0.0481 -0.1803  0.2480
    1DPPC   C1A17165  25.946  13.484   3.391  0.1317 -0.1546 -0.1995
    1DPPC   C2A17166  25.996  13.599   3.858 -0.1302  0.0874  0.0654
    1DPPC   C3A17167  26.143  13.581   4.244  0.0758 -0.2436 -0.2139
    1DPPC   C4A17168  26.275  13.619   4.623  0.1423 -0.2503  0.3623
    1DPPC   C1B17169  26.093  12.625   3.413  0.2612  0.2495  0.0230
    1DPPC   C2B17170  26.086  12.541   3.861  0.0564 -0.0069  0.0517
    1DPPC   C3B17171  26.135  12.357   4.209 -0.0615  0.1242  0.0241
    1DPPC   C4B17172  26.161  12.308   4.543 -0.3350 -0.0708 -0.1938
    1DPPC   NC317173  16.357   7.989   3.041  0.0054 -0.1908  0.1050
    1DPPC   PO417174  16.614   7.654   3.284  0.0228  0.3873 -0.1915
    1DPPC   GL117175  16.675   7.669   3.847 -0.0221  0.0955  0.3181
    1DPPC   GL217176  16.954   7.948   3.828 -0.1128 -0.1261 -0.0092
    1DPPC   C1A17177  16.582   7.516   4.239  0.2721  0.1739 -0.0577
    1DPPC   C2A17178  16.574   7.554   4.611  0.1193  0.2801 -0.0865
    1DPPC   C3A17179  16.649   7.843   5.077 -0.1487  0.1714 -0.1805
    1DPPC   C4A17180  16.997   7.842   5.412 -0.0048  0.1197  0.0478
    1DPPC   C1B17181  16.976   7.830   4.269  0.3019  0.5496  0.2606
    1DPPC   C2B17182  17.145   7.738   4.627  0.0247  0.2851 -0.0697
    1DPPC   C3B17183  17.199   7.658   5.031 -0.1452  0.0900 -0.2580
    1DPPC   C4B17184  17.435   7.671   5.423 -0.2262  0.1941  0.1186
    1DPPC   NC317185  20.534   6.120   3.546 -0.2018  0.0628 -0.0152
    1DPPC   PO417186  20.412   6.344   4.010 -0.2214  0.1642 -0.1266
    1DPPC   GL117187  20.602   6.535   4.357 -0.0483 -0.2041 -0.3542
    1DPPC   GL217188  20.920   6.323   4.387  0.3478 -0.2087  0.0971
    1DPPC   C1A17189  20.580   6.770   4.859 -0.0051 -0.2520  0.1941
    1DPPC   C2A17190  20.629   6.925   5.299 -0.0136 -0.1563 -0.1203
    1DPPC   C3A17191  20.858   7.169   5.673 -0.3729  0.0056 -0.1835
    1DPPC   C4A17192  21.343   7.283   5.642  0.4988  0.2471  0.0560
    1DPPC   C1B17193  20.840   6.384   4.806 -0.1601 -0.0193 -0.1808
    1DPPC   C2B17194  20.902   6.353   5.234  0.0088 -0.0011 -0.2290
    1DPPC   C3B17195  21.025   6.225   5.577  0.0873 -0.0960 -0.0883
    1DPPC   C4B17196  21.038   6.367   5.972 -0.3033  0.0194  0.1894
    1DPPC   NC317197  21.927   3.572   3.865 -0.0939 -0.2410 -0.0496
    1DPPC   PO417198  22.405   3.596   3.759  0.4471 -0.2199 -0.0270
    1DPPC   GL117199  22.346   3.592   4.171  0.2078 -0.1420  0.1352
    1DPPC   GL217200  22.048   3.753   4.310 -0.1028 -0.2314 -0.0291
    1DPPC   C1A17201  22.521   3.715   4.537 -0.1307  0.2480 -0.0553
    1DPPC   C2A17202  22.395   3.588   4.812 -0.0180 -0.1898 -0.3542
    1DPPC   C3A17203  22.354   3.529   5.220 -0.2906  0.2337  0.1469
    1DPPC   C4A17204  22.362   3.381   5.541  0.0498 -0.2592 -0.1800
    1DPPC   C1B17205  22.126   4.027   4.651  0.2053 -0.0616  0.0635
    1DPPC   C2B17206  22.275   4.037   4.932  0.0709 -0.1567 -0.0276
    1DPPC   C3B17207  22.483   3.940   5.385  0.0399 -0.0827  0.1144
    1DPPC   C4B17208  22.456   4.184   5.748  0.0347 -0.1071  0.3224
    1DPPC   NC317209  20.770  21.556   1.867 -0.2479 -0.0579  0.1945
    1DPPC   PO417210  20.280  21.632   2.034  0.0978 -0.1157  0.2636
    1DPPC   GL117211  20.167  21.658   2.466  0.2794  0.0506 -0.1543
    1DPPC   GL217212  20.264  21.871   2.737  0.0596 -0.1568  0.0313
    1DPPC   C1A17213  19.757  21.828   2.681 -0.0488  0.0847 -0.0085
    1DPPC   C2A17214  19.423  21.847   3.043  0.0170  0.2454  0.0414
    1DPPC   C3A17215  19.210  21.526   3.385  0.2099 -0.3427  0.1313
    1DPPC   C4A17216  19.063  21.196   3.680  0.1925 -0.2025  0.1598
    1DPPC   C1B17217  20.043  21.902   3.143  0.2862  0.1301  0.0896
    1DPPC   C2B17218  19.792  21.723   3.444  0.0510 -0.0437 -0.0776
    1DPPC   C3B17219  19.595  21.940   3.750 -0.0468  0.2514  0.1281
    1DPPC   C4B17220  19.308  22.127   3.952  0.2571  0.1699  0.1833
    1DPPC   NC317221  10.465  10.853   2.776  0.1359  0.1908 -0.2261
    1DPPC   PO417222  10.434  10.348   2.761 -0.1056 -0.0424 -0.0944
    1DPPC   GL117223  10.379  10.299   3.121  0.0312  0.0641 -0.4393
    1DPPC   GL217224  10.173  10.025   3.255 -0.3161 -0.1103 -0.2645
    1DPPC   C1A17225  10.536  10.266   3.504 -0.1555 -0.0023  0.0977
    1DPPC   C2A17226  10.378  10.426   3.879 -0.1863 -0.2644 -0.0238
    1DPPC   C3A17227  10.241  10.616   4.237  0.2001  0.0729  0.1800
    1DPPC   C4A17228  10.372  11.043   4.598 -0.0534 -0.0277  0.0377
    1DPPC   C1B17229  10.267   9.885   3.703 -0.1803 -0.1437 -0.1446
    1DPPC   C2B17230  10.117  10.064   4.130 -0.0443  0.0907 -0.0562
    1DPPC   C3B17231  10.009  10.415   4.605  0.0289  0.0351 -0.2736
    1DPPC   C4B17232  10.420  10.593   4.847  0.2573 -0.0073 -0.2395
    1DPPC   NC317233  23.546  11.603   2.532  0.0386  0.0914 -0.1245
    1DPPC   PO417234  23.248  11.892   2.547  0.0341  0.0553 -0.0677
    1DPPC   GL117235  23.473  11.963   2.949  0.0329 -0.1510  0.2344
    1DPPC   GL217236  23.735  11.739   3.003 -0.0258  0.3190 -0.1569
    1DPPC   C1A17237  23.383  11.764   3.348  0.1027 -0.1700 -0.2473
    1DPPC   C2A17238  23.318  11.563   3.718  0.1555 -0.0539 -0.0008
    1DPPC   C3A17239  23.208  11.717   4.075 -0.2132  0.0434 -0.2136
    1DPPC   C4A17240  23.330  11.910   4.447  0.2504  0.0185 -0.0153
    1DPPC   C1B17241  23.871  11.938   3.361 -0.0628 -0.1064 -0.0454
    1DPPC   C2B17242  23.818  11.810   3.759  0.2463  0.1333  0.0718
    1DPPC   C3B17243  23.735  11.683   4.162  0.2281  0.0608  0.1495
    1DPPC   C4B17244  23.541  11.389   4.511 -0.1044  0.0217 -0.0491
    1DPPC   NC317245  22.782   7.686   3.557 -0.1137 -0.1659 -0.1021
    1DPPC   PO417246  22.461   7.346   3.389  0.0461 -0.0289 -0.5097
    1DPPC   GL117247  22.391   7.215   3.878  0.1080  0.4452  0.2736
    1DPPC   GL217248  22.556   7.110   4.082  0.0057 -0.0244  0.1017
    1DPPC   C1A17249  22.272   7.354   4.348  0.1573 -0.0531 -0.0236
    1DPPC   C2A17250  22.186   7.586   4.766 -0.1165 -0.1042  0.1692
    1DPPC   C3A17251  22.294   7.512   5.244 -0.1143  0.1357 -0.1749
    1DPPC   C4A17252  22.281   7.649   5.652 -0.0287 -0.0903  0.0580
    1DPPC   C1B17253  22.742   7.461   4.268 -0.0946 -0.1167  0.1016
    1DPPC   C2B17254  22.670   7.578   4.602  0.0199  0.1640  0.2215
    1DPPC   C3B17255  22.514   7.900   4.850 -0.2215  0.1809 -0.1827
    1DPPC   C4B17256  22.160   8.097   5.067 -0.1530  0.0647 -0.0329
    1DPPC   NC317257  19.033  12.842   2.285 -0.0437  0.0086 -0.0936
    1DPPC   PO417258  19.381  13.044   2.408  0.1836 -0.0562  0.2492
    1DPPC   GL117259  19.543  12.886   2.824 -0.0707  0.0225 -0.1354
    1DPPC   GL217260  19.779  12.754   3.022  0.0894  0.2646 -0.1737
    1DPPC   C1A17261  19.298  12.708   3.141  0.0502 -0.0398  0.1192
    1DPPC   C2A17262  19.374  12.885   3.592  0.0018  0.0430 -0.0215
    1DPPC   C3A17263  19.425  12.995   3.994 -0.0123 -0.2863  0.3949
    1DPPC   C4A17264  19.400  13.042   4.476 -0.0209 -0.1342  0.0562
    1DPPC   C1B17265  19.971  12.910   3.359  0.2401 -0.1395 -0.1670
    1DPPC   C2B17266  19.996  13.055   3.817 -0.2257 -0.2368 -0.0822
    1DPPC   C3B17267  19.930  13.145   4.325  0.0079 -0.1316  0.1035
    1DPPC   C4B17268  19.748  13.218   4.748 -0.2967 -0.2322  0.0692
    1DPPC   NC317269  21.821  12.169   2.613  0.1152 -0.0458  0.2812
    1DPPC   PO417270  22.350  12.089   2.416  0.2389 -0.1248  0.1369
    1DPPC   GL117271  22.456  12.296   2.827 -0.1168 -0.0781 -0.1413
    1DPPC   GL217272  22.293  12.137   2.927  0.0239 -0.0055 -0.1757
    1DPPC   C1A17273  22.649  12.345   3.246  0.0069  0.0179 -0.2955
    1DPPC   C2A17274  22.901  12.554   3.565  0.0649 -0.2133  0.1449
    1DPPC   C3A17275  23.194  12.676   3.922 -0.0502 -0.0181  0.2088
    1DPPC   C4A17276  23.296  12.546   4.260  0.1502  0.1098 -0.0611
    1DPPC   C1B17277  22.062  12.210   3.296  0.0303 -0.0477 -0.2160
    1DPPC   C2B17278  22.039  12.205   3.727  0.4644  0.0321 -0.0090
    1DPPC   C3B17279  21.877  12.502   4.111 -0.2205 -0.2521  0.0037
    1DPPC   C4B17280  21.637  12.449   4.598 -0.0787 -0.2237  0.1688
    1DPPC   NC317281  19.844  18.582   1.999  0.0725  0.2434  0.1164
    1DPPC   PO417282  19.436  18.654   2.026  0.0685 -0.0219  0.3181
    1DPPC   GL117283  19.533  18.416   2.391 -0.2457  0.1335  0.3979
    1DPPC   GL217284  19.302  18.160   2.480 -0.0755  0.0713 -0.0296
    1DPPC   C1A17285  19.310  18.587   2.757 -0.3033  0.2724 -0.4376
    1DPPC   C2A17286  19.274  18.594   3.132  0.2163 -0.1413 -0.3562
    1DPPC   C3A17287  19.108  18.421   3.454 -0.0506  0.2161 -0.1132
    1DPPC   C4A17288  18.899  17.976   3.488 -0.2449 -0.0051 -0.0417
    1DPPC   C1B17289  19.030  18.152   2.964 -0.2362  0.3807 -0.0445
    1DPPC   C2B17290  18.712  18.479   3.286  0.3174 -0.0410 -0.3738
    1DPPC   C3B17291  18.535  18.579   3.673 -0.0364 -0.1958 -0.1658
    1DPPC   C4B17292  18.510  18.869   4.016  0.3264 -0.1303 -0.3236
    1DPPC   NC317293  18.565  20.846   1.617  0.3418  0.2782 -0.2080
    1DPPC   PO417294  18.910  20.633   1.762  0.0485  0.1522 -0.3277
    1DPPC   GL117295  18.997  20.483   2.113 -0.3532  0.1421  0.1962
    1DPPC   GL217296  18.843  20.169   2.278 -0.2747  0.2668  0.1625
    1DPPC   C1A17297  19.349  20.479   2.273 -0.2051  0.3025  0.0250
    1DPPC   C2A17298  19.686  20.279   2.520 -0.0529 -0.0083 -0.1768
    1DPPC   C3A17299  19.974  20.034   2.793  0.0918 -0.0913  0.2011
    1DPPC   C4A17300  20.001  19.745   3.158 -0.0331  0.0650 -0.1935
    1DPPC   C1B17301  19.039  20.222   2.670  0.0672  0.1727  0.3456
    1DPPC   C2B17302  19.082  20.449   3.075  0.1224 -0.0535  0.0181
    1DPPC   C3B17303  19.223  20.391   3.567 -0.1009  0.0252  0.1180
    1DPPC   C4B17304  19.176  20.107   3.887 -0.0175 -0.0748 -0.2480
    1DPPC   NC317305  19.236   4.478   3.652 -0.2334 -0.0525 -0.1498
    1DPPC   PO417306  19.181   4.775   4.083 -0.2832  0.0185 -0.2501
    1DPPC   GL117307  19.372   5.108   4.319  0.2694  0.1294 -0.0699
    1DPPC   GL217308  19.485   5.476   4.320 -0.0942  0.2180 -0.3635
    1DPPC   C1A17309  19.316   5.294   4.751  0.1033 -0.2648 -0.0048
    1DPPC   C2A17310  19.317   5.318   5.083 -0.1547 -0.1931 -0.2762
    1DPPC   C3A17311  19.278   5.209   5.495  0.1668  0.3040  0.1361
    1DPPC   C4A17312  19.576   4.941   5.736 -0.2896 -0.0657  0.3081
    1DPPC   C1B17313  19.591   5.748   4.612  0.5630  0.0102  0.3720
    1DPPC   C2B17314  19.534   5.744   5.031  0.2908 -0.0214  0.0420
    1DPPC   C3B17315  19.547   5.888   5.446 -0.2230  0.1449 -0.1579
    1DPPC   C4B17316  19.549   5.976   5.877 -0.1255  0.4652  0.0341
    1DPPC   NC317317  21.019   2.903   3.159 -0.1222  0.1391  0.2096
    1DPPC   PO417318  20.964   3.237   3.537 -0.0663  0.4119  0.1027
    1DPPC   GL117319  20.752   3.123   3.945 -0.3304 -0.0741  0.3093
    1DPPC   GL217320  20.826   3.338   4.078 -0.1744 -0.0912 -0.1115
    1DPPC   C1A17321  20.669   2.843   4.198 -0.1427  0.1537  0.2074
    1DPPC   C2A17322  20.738   2.913   4.624 -0.1044  0.0632  0.0131
    1DPPC   C3A17323  20.783   2.757   5.042 -0.2076  0.3121  0.1188
    1DPPC   C4A17324  20.878   2.619   5.430  0.0397 -0.0491 -0.3445
    1DPPC   C1B17325  20.532   3.372   4.452  0.2071 -0.0916  0.1295
    1DPPC   C2B17326  20.474   3.630   4.829  0.1318  0.4903  0.1659
    1DPPC   C3B17327  20.424   3.739   5.325  0.1146  0.1139 -0.0570
    1DPPC   C4B17328  20.517   3.737   5.830 -0.2012  0.2541 -0.0889
    1DPPC   NC317329  26.288  13.728   2.743  0.2532 -0.0136 -0.4244
    1DPPC   PO417330  26.346  13.194   2.846 -0.2682 -0.1531  0.0189
    1DPPC   GL117331  26.474  13.313   3.232  0.1762  0.2280 -0.1210
    1DPPC   GL217332  26.758  13.172   3.374  0.0258  0.0449 -0.3751
    1DPPC   C1A17333  26.423  13.569   3.579 -0.1119  0.1841 -0.2281
    1DPPC   C2A17334  26.594  13.576   4.035  0.1613  0.1625  0.0176
    1DPPC   C3A17335  26.686  13.404   4.402 -0.2335 -0.0638 -0.0725
    1DPPC   C4A17336  26.489  13.289   4.860  0.0440 -0.1618 -0.0641
    1DPPC   C1B17337  26.679  13.128   3.777  0.0558 -0.1370  0.1139
    1DPPC   C2B17338  26.728  13.030   4.128 -0.1993 -0.1170 -0.0055
    1DPPC   C3B17339  26.773  12.955   4.539  0.0949 -0.1048 -0.2419
    1DPPC   C4B17340  26.835  12.933   4.882  0.1946 -0.0838  0.0401
    1DPPC   NC317341  17.697   9.739   2.774  0.1780  0.0440  0.0349
    1DPPC   PO417342  17.712  10.127   2.513 -0.0229 -0.1889 -0.1120
    1DPPC   GL117343  17.726  10.107   3.042 -0.0195  0.1151 -0.0349
    1DPPC   GL217344  17.956  10.271   3.221  0.0982  0.0076 -0.1657
    1DPPC   C1A17345  17.501  10.481   3.262  0.0685 -0.1923  0.0043
    1DPPC   C2A17346  17.499  10.663   3.672  0.0839  0.1261 -0.3469
    1DPPC   C3A17347  17.580  10.664   4.119 -0.1041  0.1016  0.0681
    1DPPC   C4A17348  17.471  10.823   4.567  0.0426 -0.0087  0.1202
    1DPPC   C1B17349  17.928  10.160   3.776  0.0616 -0.3073 -0.0260
    1DPPC   C2B17350  17.926  10.258   4.186 -0.2643 -0.1163  0.0166
    1DPPC   C3B17351  17.718  10.430   4.538  0.0314 -0.2973  0.4298
    1DPPC   C4B17352  17.797  10.595   4.938  0.1099  0.0601 -0.2297
    1DPPC   NC317353  27.713   9.391   2.527  0.0141  0.1186 -0.0685
    1DPPC   PO417354  27.347   9.228   2.799  0.0521  0.0012 -0.2279
    1DPPC   GL117355  27.491   8.943   3.252  0.5194 -0.2471 -0.0984
    1DPPC   GL217356  27.319   8.592   3.333  0.1499  0.1527  0.2824
    1DPPC   C1A17357  27.747   8.923   3.568  0.0771  0.2057  0.0860
    1DPPC   C2A17358  27.821   8.920   3.978 -0.0036 -0.1714  0.1361
    1DPPC   C3A17359  27.811   8.920   4.441 -0.2688 -0.1041 -0.0586
    1DPPC   C4A17360  28.019   8.831   4.734  0.0269  0.0792 -0.0644
    1DPPC   C1B17361  27.402   8.616   3.764 -0.2821  0.0602  0.0904
    1DPPC   C2B17362  27.533   8.560   4.203  0.2351  0.0835 -0.1575
    1DPPC   C3B17363  27.659   8.394   4.571  0.0876  0.3524 -0.1191
    1DPPC   C4B17364  27.509   8.206   4.925  0.0400 -0.0529  0.0750
    1DPPC   NC317365  15.039   3.333   4.187 -0.0589 -0.0283 -0.1460
    1DPPC   PO417366  15.168   2.960   3.972  0.3928 -0.2228 -0.4961
    1DPPC   GL117367  15.268   2.782   4.402 -0.0305  0.1998  0.1830
    1DPPC   GL217368  15.310   3.076   4.610  0.2129 -0.0375  0.1393
    1DPPC   C1A17369  14.964   2.621   4.719 -0.1296 -0.2200 -0.0829
    1DPPC   C2A17370  14.764   2.792   5.154  0.0420 -0.0622 -0.0661
    1DPPC   C3A17371  14.836   3.017   5.385 -0.1329  0.1507  0.0377
    1DPPC   C4A17372  14.884   3.072   5.774 -0.1665  0.2989  0.1996
    1DPPC   C1B17373  15.409   2.946   4.990  0.2381 -0.0042 -0.0698
    1DPPC   C2B17374  15.377   3.044   5.444  0.0538  0.0713  0.0116
    1DPPC   C3B17375  15.368   3.161   5.893 -0.1578  0.0337  0.0628
    1DPPC   C4B17376  15.083   3.197   6.236 -0.0260 -0.0784  0.0121
    1DPPC   NC317377  23.943  12.870   2.726  0.0207  0.1959 -0.2187
    1DPPC   PO417378  24.259  13.187   2.698 -0.0433 -0.3988 -0.1298
    1DPPC   GL117379  24.201  12.911   3.143 -0.1089 -0.1447 -0.1855
    1DPPC   GL217380  23.855  12.708   3.206  0.2088 -0.0864 -0.2501
    1DPPC   C1A17381  24.180  12.927   3.585 -0.0256 -0.2009  0.2728
    1DPPC   C2A17382  24.278  12.842   3.920  0.4080 -0.2223  0.0733
    1DPPC   C3A17383  24.341  12.911   4.343  0.2076 -0.4805 -0.0462
    1DPPC   C4A17384  24.390  12.946   4.781  0.1423  0.0897  0.1889
    1DPPC   C1B17385  23.696  12.782   3.637  0.1380  0.0012  0.2450
    1DPPC   C2B17386  23.722  12.781   4.047  0.0782  0.0280  0.1344
    1DPPC   C3B17387  23.829  12.811   4.379  0.0416  0.2370 -0.0138
    1DPPC   C4B17388  24.069  12.518   4.646 -0.1720 -0.0392 -0.0657
    1DPPC   NC317389  18.631   3.789   3.791 -0.1458 -0.1811  0.0480
    1DPPC   PO417390  18.930   4.143   3.928 -0.2304 -0.0535 -0.0739
    1DPPC   GL117391  19.127   4.362   4.336 -0.1667 -0.0900  0.4453
    1DPPC   GL217392  18.817   4.249   4.439  0.2970 -0.0198 -0.0772
    1DPPC   C1A17393  19.231   4.355   4.700  0.4423 -0.1334 -0.0534
    1DPPC   C2A17394  19.127   4.479   5.128 -0.0518  0.3059 -0.2107
    1DPPC   C3A17395  19.247   4.510   5.491 -0.4696 -0.0867 -0.0808
    1DPPC   C4A17396  19.341   4.518   5.997  0.0233 -0.0790 -0.0059
    1DPPC   C1B17397  18.750   4.210   4.756  0.1545  0.1401 -0.2626
    1DPPC   C2B17398  18.643   4.345   5.151 -0.1041  0.0745  0.0736
    1DPPC   C3B17399  18.791   4.413   5.625 -0.1374 -0.0647  0.1891
    1DPPC   C4B17400  18.850   4.509   5.983 -0.0014 -0.0761  0.3060
    1DPPC   NC317401  23.288   9.251   3.168  0.2227  0.1261  0.0979
    1DPPC   PO417402  23.655   9.567   3.057  0.0029 -0.2545  0.3628
    1DPPC   GL117403  23.376   9.678   3.431  0.3970 -0.0165  0.1059
    1DPPC   GL217404  23.381   9.438   3.667 -0.2170  0.0244 -0.3691
    1DPPC   C1A17405  23.316   9.935   3.730  0.2415 -0.2309  0.0521
    1DPPC   C2A17406  23.291   9.850   4.265 -0.0614  0.1753 -0.0089
    1DPPC   C3A17407  23.168   9.578   4.617  0.2801  0.2185  0.2228
    1DPPC   C4A17408  23.244   9.433   5.091 -0.2177  0.0555  0.1145
    1DPPC   C1B17409  23.266   9.230   4.120 -0.1284 -0.0131  0.3863
    1DPPC   C2B17410  23.152   9.154   4.392  0.1764 -0.0375  0.1801
    1DPPC   C3B17411  22.807   9.162   4.652 -0.0053 -0.3760 -0.0552
    1DPPC   C4B17412  22.442   8.861   4.651 -0.0124 -0.0058  0.0668
    1DPPC   NC317413   3.681   5.977   2.726  0.1829  0.0905  0.0288
    1DPPC   PO417414   3.576   5.635   3.058 -0.1278 -0.3193 -0.0182
    1DPPC   GL117415   3.468   5.849   3.480  0.0440 -0.0224 -0.1050
    1DPPC   GL217416   3.213   5.790   3.512 -0.0100  0.0901  0.0705
    1DPPC   C1A17417   3.746   6.002   3.658  0.0040 -0.2765  0.0583
    1DPPC   C2A17418   3.758   6.281   3.946 -0.0270 -0.0296  0.2888
    1DPPC   C3A17419   3.608   6.558   4.211 -0.3294  0.1951  0.0083
    1DPPC   C4A17420   3.241   6.583   4.486 -0.2159  0.1404  0.0836
    1DPPC   C1B17421   3.232   5.798   4.010  0.1421 -0.1038  0.0101
    1DPPC   C2B17422   3.347   6.111   4.262 -0.2563 -0.0050 -0.2872
    1DPPC   C3B17423   3.658   6.245   4.656 -0.2944 -0.3934  0.1268
    1DPPC   C4B17424   3.690   6.112   5.062 -0.2799 -0.1605  0.0363
    1DPPC   NC317425  23.752  16.424   2.415  0.3570  0.0300  0.3277
    1DPPC   PO417426  23.571  16.015   2.447 -0.1485  0.0001 -0.1042
    1DPPC   GL117427  23.580  15.792   2.875  0.0063 -0.0802  0.0954
    1DPPC   GL217428  23.760  15.461   2.836 -0.0853 -0.0695 -0.0655
    1DPPC   C1A17429  23.622  15.751   3.297  0.0686 -0.2975  0.1934
    1DPPC   C2A17430  23.689  15.653   3.742 -0.1374 -0.1127 -0.1040
    1DPPC   C3A17431  23.719  15.400   4.070 -0.1547 -0.1294 -0.0925
    1DPPC   C4A17432  23.850  14.950   4.255  0.0033  0.1713  0.0862
    1DPPC   C1B17433  24.037  15.573   3.102 -0.1261  0.1452 -0.1557
    1DPPC   C2B17434  24.172  15.745   3.539  0.2348 -0.1037 -0.1597
    1DPPC   C3B17435  24.074  15.845   3.925  0.0639  0.1528 -0.1529
    1DPPC   C4B17436  24.082  15.699   4.280  0.0140  0.2554  0.1577
    1DPPC   NC317437  23.400  14.166   2.325  0.0016  0.0473 -0.3205
    1DPPC   PO417438  23.530  13.765   2.476  0.3041  0.2883  0.0036
    1DPPC   GL117439  23.482  14.038   2.850  0.1529 -0.2463  0.1527
    1DPPC   GL217440  23.778  14.071   3.062  0.0754 -0.0989  0.0296
    1DPPC   C1A17441  23.118  14.050   2.981  0.1594 -0.2737 -0.0241
    1DPPC   C2A17442  22.939  13.971   3.363  0.2979  0.1448  0.0679
    1DPPC   C3A17443  22.921  13.965   3.829 -0.2735 -0.3431  0.0187
    1DPPC   C4A17444  22.978  13.927   4.286 -0.0126  0.0337  0.1192
    1DPPC   C1B17445  23.988  13.783   3.447  0.0512  0.2095 -0.0790
    1DPPC   C2B17446  23.973  13.795   3.880 -0.3155  0.2928  0.1674
    1DPPC   C3B17447  23.977  13.823   4.280  0.1028 -0.1402  0.3371
    1DPPC   C4B17448  23.887  13.859   4.743 -0.3457  0.1918  0.0651
    1DPPC   NC317449  13.890   6.797   3.875 -0.1177 -0.1664 -0.2068
    1DPPC   PO417450  13.690   7.134   3.958  0.1263  0.2845  0.0238
    1DPPC   GL117451  13.725   7.174   4.351 -0.2066  0.4371  0.3607
    1DPPC   GL217452  14.069   7.202   4.611 -0.3036 -0.2017 -0.0680
    1DPPC   C1A17453  13.871   6.757   4.656 -0.1503  0.0637  0.4522
    1DPPC   C2A17454  13.878   6.763   5.078 -0.2255 -0.4020 -0.3051
    1DPPC   C3A17455  13.866   6.704   5.515  0.0856  0.0910 -0.0433
    1DPPC   C4A17456  14.047   6.695   6.045 -0.4663 -0.1617  0.2592
    1DPPC   C1B17457  13.918   7.328   4.998  0.0657 -0.1243 -0.4251
    1DPPC   C2B17458  13.859   7.590   5.406  0.3269 -0.0281  0.1519
    1DPPC   C3B17459  13.687   8.053   5.401  0.1360 -0.0204 -0.3204
    1DPPC   C4B17460  13.925   8.432   5.462  0.0152  0.0208  0.2521
    1DPPC   NC317461  27.149  12.706   2.397 -0.1630 -0.1276 -0.0527
    1DPPC   PO417462  26.958  12.411   2.727 -0.2265 -0.0071  0.0012
    1DPPC   GL117463  26.644  12.384   3.080 -0.1258  0.0507 -0.1525
    1DPPC   GL217464  26.477  12.798   3.069 -0.1784 -0.0716  0.2781
    1DPPC   C1A17465  26.376  12.176   3.248  0.1885 -0.1672 -0.2011
    1DPPC   C2A17466  26.362  12.121   3.721  0.1866  0.1970  0.1621
    1DPPC   C3A17467  26.434  12.005   4.139 -0.1949 -0.1458  0.0288
    1DPPC   C4A17468  26.589  12.106   4.522 -0.0786 -0.2188  0.3899
    1DPPC   C1B17469  26.579  12.665   3.487  0.1332 -0.0674  0.3904
    1DPPC   C2B17470  26.603  12.579   3.867 -0.0482 -0.1259  0.1588
    1DPPC   C3B17471  26.684  12.527   4.305 -0.0912  0.1087  0.0391
    1DPPC   C4B17472  26.895  12.476   4.690 -0.2199  0.0165  0.1757
    1DPPC   NC317473  21.169   3.752   3.918  0.3841 -0.2586  0.3514
    1DPPC   PO417474  21.518   3.606   4.124 -0.2234  0.3064 -0.1170
    1DPPC   GL117475  21.451   3.705   4.599 -0.0230 -0.1832  0.0805
    1DPPC   GL217476  21.680   3.878   4.734  0.0724  0.0827  0.2557
    1DPPC   C1A17477  21.396   3.560   5.019 -0.0189 -0.2940 -0.1752
    1DPPC   C2A17478  21.386   3.543   5.432  0.0104  0.1359 -0.0482
    1DPPC   C3A17479  21.531   3.603   5.860  0.0639 -0.0141  0.1843
    1DPPC   C4A17480  21.859   3.486   6.109  0.3263  0.2177 -0.0972
    1DPPC   C1B17481  21.862   3.632   5.026  0.2256  0.1840  0.0700
    1DPPC   C2B17482  21.887   3.460   5.460 -0.2524  0.2849 -0.2333
    1DPPC   C3B17483  21.913   3.214   5.705 -0.1197  0.0554  0.0953
    1DPPC   C4B17484  21.962   2.943   5.992  0.0566  0.1831  0.0145
    1DPPC   NC317485   4.377  18.654   2.998  0.2244 -0.4831 -0.1100
    1DPPC   PO417486   4.403  19.154   3.069 -0.1062 -0.0408  0.0341
    1DPPC   GL117487   4.409  19.085   3.488 -0.0887 -0.1423  0.0092
    1DPPC   GL217488   4.794  18.930   3.555  0.0332  0.0342 -0.0722
    1DPPC   C1A17489   4.375  19.021   3.906  0.0255  0.0273 -0.0501
    1DPPC   C2A17490   4.454  19.305   4.191 -0.2006 -0.1211  0.2073
    1DPPC   C3A17491   4.476  19.603   4.457 -0.2130  0.1499  0.2673
    1DPPC   C4A17492   4.297  19.971   4.617 -0.0457 -0.3809 -0.0432
    1DPPC   C1B17493   4.893  19.302   3.798 -0.0876  0.1937  0.0110
    1DPPC   C2B17494   5.021  19.604   4.220  0.0825 -0.3046  0.0194
    1DPPC   C3B17495   4.961  19.771   4.617  0.3771  0.2367 -0.0189
    1DPPC   C4B17496   5.243  19.877   4.884  0.0168 -0.0852 -0.0758
    1DPPC   NC317497  27.833  15.060   2.364  0.0008  0.1050  0.2246
    1DPPC   PO417498  28.055  14.765   2.680  0.1755  0.0341  0.0530
    1DPPC   GL117499  28.092  14.562   3.163 -0.0829 -0.2898 -0.2286
    1DPPC   GL217500  27.726  14.589   3.358  0.0330  0.3470  0.0212
    1DPPC   C1A17501  28.131  14.736   3.557  0.1845  0.0647 -0.1087
    1DPPC   C2A17502  28.191  14.878   3.978 -0.1267 -0.1537 -0.0647
    1DPPC   C3A17503  28.398  14.893   4.449 -0.1498  0.0539 -0.0248
    1DPPC   C4A17504  28.782  14.952   4.555 -0.2983 -0.0270 -0.2718
    1DPPC   C1B17505  27.687  14.640   3.780 -0.0317  0.0546  0.0160
    1DPPC   C2B17506  27.810  14.742   4.198  0.0931 -0.1149 -0.0411
    1DPPC   C3B17507  27.598  14.922   4.437  0.2614  0.2286 -0.1559
    1DPPC   C4B17508  27.082  14.906   4.330 -0.0513  0.1014 -0.1372
    1DPPC   NC317509  28.242  11.394   2.712 -0.3270  0.0427 -0.2728
    1DPPC   PO417510  27.806  11.603   2.647  0.0787  0.2269  0.0729
    1DPPC   GL117511  27.874  11.560   3.025  0.0266  0.0069  0.4019
    1DPPC   GL217512  28.136  11.700   3.235  0.0409  0.1362  0.3395
    1DPPC   C1A17513  27.546  11.364   3.364  0.4314 -0.2139  0.3775
    1DPPC   C2A17514  27.625  11.284   3.713  0.2598 -0.1494 -0.0392
    1DPPC   C3A17515  27.803  11.150   4.138  0.2166  0.2016 -0.2081
    1DPPC   C4A17516  27.854  10.980   4.566 -0.0397 -0.1875 -0.0792
    1DPPC   C1B17517  28.138  11.346   3.566 -0.2193 -0.2424  0.2566
    1DPPC   C2B17518  28.332  11.323   4.016 -0.0433  0.0129  0.0854
    1DPPC   C3B17519  28.268  11.274   4.433  0.0776  0.0003  0.1371
    1DPPC   C4B17520  28.467  11.045   4.708 -0.1044  0.0690  0.1636
    1DPPC   NC317521  20.417  18.901   1.492  0.0034 -0.0743 -0.0421
    1DPPC   PO417522  20.259  18.789   2.001  0.0466 -0.0697  0.3103
    1DPPC   GL117523  20.407  18.800   2.410  0.0895  0.1383  0.0125
    1DPPC   GL217524  20.497  18.514   2.638  0.0269  0.1813  0.0942
    1DPPC   C1A17525  20.213  18.878   2.847  0.0603  0.2635 -0.0201
    1DPPC   C2A17526  20.329  18.925   3.316  0.1382  0.1328  0.0643
    1DPPC   C3A17527  20.125  19.161   3.659 -0.3240  0.0454  0.0755
    1DPPC   C4A17528  19.848  19.476   3.777 -0.0623 -0.0153 -0.1542
    1DPPC   C1B17529  20.500  18.361   3.060  0.0692 -0.1070 -0.1037
    1DPPC   C2B17530  20.226  18.433   3.476 -0.2551  0.1711  0.0026
    1DPPC   C3B17531  19.791  18.179   3.676 -0.1141  0.0957 -0.0296
    1DPPC   C4B17532  19.366  18.093   3.804  0.2579 -0.0841 -0.5541
    1DPPC   NC317533   4.950   3.481   2.693 -0.3721  0.1559  0.3186
    1DPPC   PO417534   4.792   3.464   3.087 -0.1598  0.0649 -0.0883
    1DPPC   GL117535   5.039   3.242   3.287 -0.0014 -0.5455 -0.1162
    1DPPC   GL217536   5.157   3.349   3.464 -0.1866 -0.0707 -0.0249
    1DPPC   C1A17537   5.144   2.931   3.665 -0.0478 -0.0515 -0.1449
    1DPPC   C2A17538   5.021   2.932   3.956  0.0535  0.2916  0.0066
    1DPPC   C3A17539   4.772   2.951   4.347  0.0722  0.2319  0.0260
    1DPPC   C4A17540   4.562   2.847   4.688 -0.0224 -0.1611 -0.2528
    1DPPC   C1B17541   4.739   3.344   3.774 -0.0091 -0.2477  0.0493
    1DPPC   C2B17542   4.401   3.599   3.934  0.2180  0.0619 -0.2443
    1DPPC   C3B17543   4.147   3.761   4.191 -0.1010 -0.0738  0.2651
    1DPPC   C4B17544   4.160   3.946   4.591  0.0833 -0.0063 -0.2294
    1DPPC   NC317545  17.648   3.720   4.311 -0.1818  0.0554  0.1720
    1DPPC   PO417546  17.452   4.193   4.288 -0.1776  0.0355  0.4027
    1DPPC   GL117547  17.571   4.046   4.705  0.2761 -0.1540 -0.1461
    1DPPC   GL217548  17.908   3.924   4.730 -0.2668 -0.2277  0.0311
    1DPPC   C1A17549  17.503   4.002   5.251  0.2094  0.1408 -0.0386
    1DPPC   C2A17550  17.320   4.105   5.613  0.1706 -0.0095  0.1444
    1DPPC   C3A17551  17.102   3.900   5.847  0.0227 -0.0472  0.2573
    1DPPC   C4A17552  16.794   3.577   6.077  0.4040  0.2902  0.0768
    1DPPC   C1B17553  17.942   4.162   5.121  0.2117  0.0082  0.1391
    1DPPC   C2B17554  17.771   4.265   5.576 -0.1962 -0.1681  0.0166
    1DPPC   C3B17555  17.557   4.531   5.985 -0.0573  0.2647 -0.1438
    1DPPC   C4B17556  17.414   4.659   6.416  0.3416  0.1318 -0.1640
    1DPPC   NC317557   5.091   0.367   2.307 -0.2105 -0.0807 -0.0583
    1DPPC   PO417558   5.408   0.465   2.591  0.1990 -0.0314 -0.1522
    1DPPC   GL117559   5.354   0.440   3.019 -0.0202  0.0426 -0.2727
    1DPPC   GL217560   5.645   0.493   3.193  0.0014  0.0255 -0.1999
    1DPPC   C1A17561   5.134   0.523   3.311  0.1975  0.2233 -0.0785
    1DPPC   C2A17562   4.732   0.700   3.343  0.1651 -0.1075  0.2013
    1DPPC   C3A17563   4.398   0.794   3.534 -0.1739 -0.1798  0.2096
    1DPPC   C4A17564   4.311   0.644   3.886 -0.1240 -0.1047 -0.0674
    1DPPC   C1B17565   5.594   0.945   3.355 -0.0043 -0.3555  0.1113
    1DPPC   C2B17566   5.551   1.144   3.771 -0.2968  0.2706  0.2362
    1DPPC   C3B17567   5.265   1.040   4.115  0.0776  0.3658  0.2291
    1DPPC   C4B17568   5.332   0.651   4.383 -0.0617 -0.5070 -0.0386
    1DPPC   NC317569  20.697   8.454   2.480 -0.2585  0.0803 -0.1954
    1DPPC   PO417570  20.975   8.638   2.782 -0.0538  0.2185  0.0754
    1DPPC   GL117571  21.054   8.847   3.195  0.3932 -0.1686 -0.1198
    1DPPC   GL217572  20.936   8.823   3.402 -0.2606 -0.3361  0.0667
    1DPPC   C1A17573  21.291   9.177   3.505  0.1815  0.2012  0.3150
    1DPPC   C2A17574  21.226   9.379   3.888  0.1922 -0.0963  0.1506
    1DPPC   C3A17575  21.231   9.586   4.284  0.0950 -0.0296 -0.0282
    1DPPC   C4A17576  20.983   9.675   4.625  0.3681 -0.2737  0.0033
    1DPPC   C1B17577  20.802   8.968   3.816  0.2804  0.1483 -0.1492
    1DPPC   C2B17578  20.687   8.828   4.203 -0.0619 -0.0950 -0.1263
    1DPPC   C3B17579  20.707   8.761   4.656 -0.0177 -0.0710 -0.1514
    1DPPC   C4B17580  20.728   8.826   5.048  0.0967 -0.0288  0.1218
    1DPPC   NC317581  17.203   9.647   2.949 -0.3705  0.0872  0.1771
    1DPPC   PO417582  17.482   9.394   3.044 -0.0480  0.1234 -0.0302
    1DPPC   GL117583  17.323   9.494   3.430 -0.0670  0.0980 -0.1279
    1DPPC   GL217584  17.180   9.265   3.593 -0.0661 -0.1734 -0.1756
    1DPPC   C1A17585  17.502   9.653   3.796 -0.0775  0.0690  0.3653
    1DPPC   C2A17586  17.658   9.780   4.169 -0.0605  0.0896  0.0990
    1DPPC   C3A17587  17.567   9.962   4.504  0.0844 -0.1742 -0.1505
    1DPPC   C4A17588  17.646  10.100   4.946 -0.0543  0.1423  0.0521
    1DPPC   C1B17589  17.259   9.305   4.074 -0.0173  0.1815  0.1216
    1DPPC   C2B17590  17.342   9.461   4.376  0.1486 -0.0040 -0.0312
    1DPPC   C3B17591  17.464   9.561   4.768  0.0423  0.1514  0.0833
    1DPPC   C4B17592  17.739   9.558   5.116  0.4087 -0.1965  0.1394
    1DPPC   NC317593  29.695  25.330   2.287  0.1531 -0.0477  0.1160
    1DPPC   PO417594   0.278  25.437   2.298 -0.2247 -0.1323  0.1219
    1DPPC   GL117595   0.455  25.554   2.676 -0.0654 -0.2675  0.5400
    1DPPC   GL217596   0.768  25.566   2.773  0.3264  0.1520 -0.0883
    1DPPC   C1A17597   0.374  25.337   3.085 -0.1680 -0.0251  0.0501
    1DPPC   C2A17598   0.612  25.249   3.491  0.0226  0.0298  0.2697
    1DPPC   C3A17599   0.992  25.252   3.741 -0.0508  0.0633 -0.1794
    1DPPC   C4A17600   1.315  25.356   3.990 -0.0068  0.4114  0.2043
    1DPPC   C1B17601   0.857  25.208   2.888  0.4098  0.4242 -0.0269
    1DPPC   C2B17602   1.105  25.213   3.230  0.3664  0.2697  0.1240
    1DPPC   C3B17603   1.565  25.302   3.445 -0.0373  0.0757 -0.1414
    1DPPC   C4B17604   1.774  25.194   3.844  0.1623 -0.1546 -0.1858
    1DPPC   NC317605  18.487  10.986   2.744 -0.3484  0.1050  0.0144
    1DPPC   PO417606  18.731  10.876   2.989  0.4441  0.0363  0.3079
    1DPPC   GL117607  18.680  10.840   3.418  0.1802  0.2595  0.3224
    1DPPC   GL217608  18.580  10.500   3.477  0.1154 -0.2405  0.0486
    1DPPC   C1A17609  18.847  11.047   3.771 -0.1313  0.0425  0.1322
    1DPPC   C2A17610  18.898  11.204   4.281 -0.0825 -0.1002  0.5421
    1DPPC   C3A17611  18.856  11.215   4.680  0.3198 -0.0734  0.0701
    1DPPC   C4A17612  18.906  11.317   5.095  0.1067 -0.0549  0.3807
    1DPPC   C1B17613  18.588  10.677   3.895 -0.0982 -0.0182  0.2621
    1DPPC   C2B17614  18.525  10.674   4.236  0.0849 -0.0213 -0.1674
    1DPPC   C3B17615  18.747  10.739   4.570  0.0055 -0.0060 -0.1075
    1DPPC   C4B17616  18.727  10.786   5.024 -0.1444  0.2716 -0.5205
    1DPPC   NC317617  14.959   8.688   3.328 -0.3172  0.1468 -0.2392
    1DPPC   PO417618  14.523   8.519   3.321 -0.2148 -0.0096  0.1499
    1DPPC   GL117619  14.606   8.655   3.694  0.0767  0.0877  0.2664
    1DPPC   GL217620  14.464   8.956   3.681  0.0553  0.0468  0.2445
    1DPPC   C1A17621  14.629   8.452   4.074  0.3198  0.0935 -0.1143
    1DPPC   C2A17622  14.353   8.590   4.434 -0.2285 -0.0165 -0.0768
    1DPPC   C3A17623  14.361   8.781   4.739  0.0206 -0.1091 -0.1919
    1DPPC   C4A17624  14.126   8.842   5.188 -0.2573  0.0966 -0.2612
    1DPPC   C1B17625  14.325   8.920   4.087  0.1172  0.1930 -0.1107
    1DPPC   C2B17626  14.228   9.120   4.460  0.1805  0.1364  0.1803
    1DPPC   C3B17627  14.013   9.202   4.879  0.2404 -0.0538  0.1451
    1DPPC   C4B17628  13.712   9.133   5.059 -0.0591  0.1117 -0.0289
    1DPPC   NC317629  27.503  16.214   2.327  0.1330  0.1964  0.1674
    1DPPC   PO417630  27.149  16.201   2.548  0.0304 -0.1008 -0.1423
    1DPPC   GL117631  27.123  16.206   2.974 -0.2462 -0.2983  0.0663
    1DPPC   GL217632  26.773  16.141   3.254 -0.0525  0.0500  0.2584
    1DPPC   C1A17633  27.187  16.127   3.537 -0.0280  0.3278  0.0502
    1DPPC   C2A17634  27.077  16.246   3.945  0.1578 -0.2265 -0.3574
    1DPPC   C3A17635  26.960  16.317   4.437 -0.1979  0.1010  0.2337
    1DPPC   C4A17636  26.680  16.559   4.597  0.2218  0.3025  0.0777
    1DPPC   C1B17637  26.620  16.116   3.668 -0.3430 -0.0710 -0.0963
    1DPPC   C2B17638  26.618  16.161   4.075 -0.2942 -0.0242  0.1279
    1DPPC   C3B17639  26.362  16.144   4.417 -0.2501 -0.2085 -0.1067
    1DPPC   C4B17640  26.226  16.377   4.786 -0.2539  0.0124  0.0939
    1DPPC   NC317641  15.726  24.496   1.758 -0.2627  0.2105  0.0151
    1DPPC   PO417642  15.644  24.899   1.902  0.0361 -0.4655 -0.2173
    1DPPC   GL117643  15.697  24.878   2.386  0.0308 -0.1311  0.1005
    1DPPC   GL217644  15.754  25.150   2.599  0.2888  0.1780  0.0360
    1DPPC   C1A17645  16.007  24.756   2.630  0.3438  0.0710  0.0233
    1DPPC   C2A17646  16.047  24.953   3.036 -0.0695  0.0668  0.4213
    1DPPC   C3A17647  15.960  25.157   3.306 -0.1690 -0.0996 -0.0614
    1DPPC   C4A17648  15.817  25.139   3.705  0.1546 -0.2458 -0.6675
    1DPPC   C1B17649  15.561  24.868   2.872 -0.3500  0.0419 -0.2148
    1DPPC   C2B17650  15.590  24.468   3.165  0.0799 -0.0220 -0.3179
    1DPPC   C3B17651  15.759  24.148   3.393  0.0539  0.1464  0.0268
    1DPPC   C4B17652  15.881  23.819   3.549  0.2620  0.1090  0.1015
    1DPPC   NC317653  18.221  23.125   1.693  0.0464  0.4424 -0.0250
    1DPPC   PO417654  18.717  23.278   1.757 -0.2866 -0.3621 -0.2588
    1DPPC   GL117655  18.826  23.383   2.189  0.2899  0.5408  0.1053
    1DPPC   GL217656  18.568  23.535   2.362 -0.0111  0.0491 -0.5078
    1DPPC   C1A17657  18.873  23.207   2.641 -0.2363 -0.1817 -0.3178
    1DPPC   C2A17658  18.623  23.283   3.017 -0.1728  0.3277 -0.2253
    1DPPC   C3A17659  18.617  23.254   3.529  0.1091  0.0764  0.1603
    1DPPC   C4A17660  18.464  22.928   3.790  0.0312  0.2698  0.0865
    1DPPC   C1B17661  18.326  23.269   2.637  0.1439  0.0750 -0.0931
    1DPPC   C2B17662  18.053  23.359   2.861 -0.0507 -0.0182 -0.4970
    1DPPC   C3B17663  17.726  23.123   3.039 -0.1791 -0.2352  0.1441
    1DPPC   C4B17664  17.521  22.939   3.380 -0.0957 -0.0704 -0.3362
    1DPPC   NC317665  29.130  19.440   2.639  0.0701  0.5227  0.0369
    1DPPC   PO417666  29.445  19.685   2.636  0.0847  0.2113 -0.1487
    1DPPC   GL117667  29.402  19.774   3.079 -0.1306  0.1069  0.1155
    1DPPC   GL217668  29.406  20.072   3.140  0.2189 -0.1799  0.0524
    1DPPC   C1A17669  29.492  19.660   3.509  0.2499 -0.0649  0.1706
    1DPPC   C2A17670  29.615  19.536   3.986  0.0554 -0.2801 -0.0834
    1DPPC   C3A17671  29.798  19.790   4.368 -0.1378 -0.0531  0.0333
    1DPPC   C4A17672   0.237  20.036   4.638  0.1027  0.2768  0.1604
    1DPPC   C1B17673  29.384  20.121   3.530 -0.1359 -0.0837 -0.2649
    1DPPC   C2B17674  29.169  20.482   3.560 -0.0739  0.1444 -0.1607
    1DPPC   C3B17675  29.097  20.655   3.866 -0.2319  0.0422  0.1010
    1DPPC   C4B17676  29.176  20.595   4.306  0.1567  0.0779 -0.0346
    1DPPC   NC317677  20.424  11.406   2.202  0.0205 -0.2170 -0.0746
    1DPPC   PO417678  20.305  11.280   2.685 -0.0064  0.0377 -0.1590
    1DPPC   GL117679  20.367  11.224   3.131 -0.1375 -0.0029  0.0428
    1DPPC   GL217680  20.105  11.083   3.245  0.0056  0.0807  0.1062
    1DPPC   C1A17681  20.480  11.113   3.551 -0.0169 -0.0294 -0.0253
    1DPPC   C2A17682  20.471  11.069   4.002  0.0399  0.0012  0.1421
    1DPPC   C3A17683  20.464  11.144   4.426  0.1042  0.1362  0.0487
    1DPPC   C4A17684  20.308  11.050   4.846  0.1851 -0.1675  0.2588
    1DPPC   C1B17685  19.980  11.271   3.723 -0.5060 -0.0041 -0.1453
    1DPPC   C2B17686  20.062  11.353   4.171  0.1736 -0.1267 -0.2619
    1DPPC   C3B17687  20.022  11.337   4.557  0.2054  0.2293  0.2768
    1DPPC   C4B17688  19.833  11.358   4.888  0.2366 -0.3577 -0.1832
    1DPPC   NC317689   3.631   7.699   3.046  0.0338  0.1312 -0.2098
    1DPPC   PO417690   3.231   7.623   3.366 -0.0751 -0.2892  0.1682
    1DPPC   GL117691   3.364   8.036   3.546 -0.4622 -0.0250 -0.2840
    1DPPC   GL217692   3.244   8.330   3.564 -0.0231 -0.3560 -0.1099
    1DPPC   C1A17693   3.716   8.250   3.734  0.0882  0.1318  0.0914
    1DPPC   C2A17694   3.820   8.410   4.103  0.1115 -0.0325 -0.2567
    1DPPC   C3A17695   3.669   8.767   4.460 -0.0901 -0.1750  0.3792
    1DPPC   C4A17696   3.886   9.085   4.457  0.2629 -0.1562  0.1445
    1DPPC   C1B17697   3.348   8.713   3.799  0.0150 -0.1203 -0.0316
    1DPPC   C2B17698   3.387   9.037   4.120  0.0500 -0.2290  0.2083
    1DPPC   C3B17699   3.349   9.176   4.600 -0.0292 -0.3502  0.2732
    1DPPC   C4B17700   3.537   9.119   4.949 -0.0613  0.0515  0.3355
    1DPPC   NC317701  15.773  21.225   1.512 -0.1872 -0.3206  0.1520
    1DPPC   PO417702  16.183  21.113   1.741  0.3126  0.1436 -0.2984
    1DPPC   GL117703  16.454  21.136   2.137  0.3356 -0.1205  0.0490
    1DPPC   GL217704  16.306  21.319   2.349  0.1762 -0.0648 -0.0232
    1DPPC   C1A17705  16.536  20.994   2.657  0.2833 -0.2093  0.1178
    1DPPC   C2A17706  16.880  20.856   2.957 -0.1824  0.1970 -0.0604
    1DPPC   C3A17707  16.917  20.928   3.424 -0.0536  0.3349 -0.0099
    1DPPC   C4A17708  17.083  21.074   3.810 -0.3155 -0.0079 -0.3494
    1DPPC   C1B17709  16.184  21.417   2.767 -0.0111 -0.0980  0.2529
    1DPPC   C2B17710  16.284  21.133   3.079  0.1317  0.0314  0.1966
    1DPPC   C3B17711  16.452  20.804   3.380  0.1757 -0.2598  0.2469
    1DPPC   C4B17712  16.398  20.408   3.610 -0.2785  0.1031  0.0176
    1DPPC   NC317713   3.354  18.153   2.575 -0.1730 -0.0826  0.0054
    1DPPC   PO417714   2.884  18.370   2.646 -0.0696  0.1583 -0.1637
    1DPPC   GL117715   2.859  18.513   3.019  0.0930  0.2179 -0.0972
    1DPPC   GL217716   3.131  18.779   3.236  0.2121 -0.0647  0.1712
    1DPPC   C1A17717   2.683  18.468   3.406 -0.0502 -0.2765 -0.0972
    1DPPC   C2A17718   2.357  18.520   3.580  0.2480 -0.1527  0.3465
    1DPPC   C3A17719   2.170  18.184   3.673 -0.1786 -0.1969  0.4606
    1DPPC   C4A17720   1.799  17.939   3.817 -0.2646  0.0238  0.2861
    1DPPC   C1B17721   3.221  18.856   3.716  0.0312  0.1476  0.0968
    1DPPC   C2B17722   3.032  18.936   4.159 -0.1535  0.2409  0.2348
    1DPPC   C3B17723   2.797  18.984   4.412 -0.0239 -0.2023  0.0614
    1DPPC   C4B17724   2.844  19.309   4.682 -0.2220 -0.2397  0.2121
    1DPPC   NC317725  23.905   6.727   3.514 -0.1893  0.0596 -0.0479
    1DPPC   PO417726  23.958   6.385   3.834  0.1418 -0.1541 -0.1152
    1DPPC   GL117727  24.111   6.660   4.193 -0.0831  0.0493  0.1329
    1DPPC   GL217728  24.370   6.659   4.291  0.3306  0.2246  0.0926
    1DPPC   C1A17729  24.149   7.013   4.544  0.0039 -0.1499 -0.0056
    1DPPC   C2A17730  24.319   7.186   4.938 -0.1327  0.1296 -0.1156
    1DPPC   C3A17731  24.125   7.383   5.233  0.1374 -0.1320 -0.0409
    1DPPC   C4A17732  24.114   7.787   5.346  0.3768  0.5122 -0.1833
    1DPPC   C1B17733  24.572   6.783   4.608 -0.2414 -0.0580 -0.4462
    1DPPC   C2B17734  24.714   6.853   4.980 -0.0846 -0.2135 -0.2161
    1DPPC   C3B17735  24.501   7.075   5.369 -0.1391 -0.2720  0.2684
    1DPPC   C4B17736  24.570   7.060   5.811  0.2312  0.2177 -0.0486
    1DPPC   NC317737  24.947  17.046   2.659 -0.0082  0.0587  0.0437
    1DPPC   PO417738  25.105  16.675   2.699 -0.0492  0.0532  0.0223
    1DPPC   GL117739  24.808  16.530   3.013 -0.2771 -0.1681  0.2820
    1DPPC   GL217740  24.926  16.280   3.130 -0.3042  0.4311  0.3001
    1DPPC   C1A17741  24.614  16.740   3.351  0.0691  0.0273 -0.0289
    1DPPC   C2A17742  24.476  16.661   3.748  0.1916 -0.3056  0.0449
    1DPPC   C3A17743  24.153  16.782   3.908  0.0524 -0.0971 -0.2260
    1DPPC   C4A17744  23.819  17.007   4.097 -0.1414  0.0446  0.0228
    1DPPC   C1B17745  24.871  15.935   3.368 -0.0250 -0.0748  0.1143
    1DPPC   C2B17746  24.998  15.708   3.740  0.0468 -0.0058  0.2136
    1DPPC   C3B17747  25.087  15.800   4.138  0.2765  0.1540  0.1120
    1DPPC   C4B17748  25.045  15.750   4.592 -0.0118  0.0693  0.1575
    1DPPC   NC317749  24.643  15.407   2.837  0.0689  0.0050 -0.1255
    1DPPC   PO417750  24.533  14.984   2.708 -0.5251  0.2347 -0.1020
    1DPPC   GL117751  24.415  14.966   3.191 -0.2240 -0.2878 -0.1952
    1DPPC   GL217752  24.112  15.036   3.073  0.3529 -0.1496 -0.1304
    1DPPC   C1A17753  24.348  14.742   3.558 -0.2042 -0.0998 -0.0424
    1DPPC   C2A17754  24.302  14.707   4.094 -0.0087  0.0416 -0.0366
    1DPPC   C3A17755  23.954  14.419   4.357 -0.2831  0.0720 -0.0245
    1DPPC   C4A17756  23.731  14.362   4.723 -0.1427 -0.0302  0.3765
    1DPPC   C1B17757  24.032  15.239   3.453  0.3744 -0.2019 -0.1035
    1DPPC   C2B17758  23.897  14.959   3.719 -0.0758  0.0943 -0.0306
    1DPPC   C3B17759  23.886  14.625   3.857  0.0478  0.3367 -0.3623
    1DPPC   C4B17760  24.161  14.223   3.944  0.0165 -0.1223 -0.0535
    1DPPC   NC317761  14.053   8.254   3.388 -0.0523  0.0772 -0.2264
    1DPPC   PO417762  13.852   8.023   3.675 -0.2238  0.1951 -0.1230
    1DPPC   GL117763  13.838   8.089   4.005 -0.0534  0.2118 -0.2233
    1DPPC   GL217764  13.491   7.948   4.160  0.0429 -0.0036  0.2467
    1DPPC   C1A17765  14.157   8.202   4.270 -0.1573 -0.1454  0.0267
    1DPPC   C2A17766  14.187   8.242   4.713  0.1754  0.1775 -0.3640
    1DPPC   C3A17767  14.177   8.313   5.056 -0.1136 -0.2016  0.2386
    1DPPC   C4A17768  14.432   8.190   5.388  0.1263  0.2612  0.2682
    1DPPC   C1B17769  13.119   8.193   4.309  0.1427 -0.0325 -0.1671
    1DPPC   C2B17770  12.897   8.377   4.672 -0.0478 -0.1623  0.1293
    1DPPC   C3B17771  12.781   8.684   4.919  0.2098 -0.0774  0.0625
    1DPPC   C4B17772  12.819   8.843   5.333  0.4086 -0.0777  0.3898
    1DPPC   NC317773   2.311  19.046   2.585  0.2765 -0.0054  0.1419
    1DPPC   PO417774   2.498  19.279   2.720  0.1617 -0.0669  0.0224
    1DPPC   GL117775   2.475  19.312   3.131 -0.1901  0.0458 -0.0571
    1DPPC   GL217776   2.642  18.927   3.167  0.2018 -0.2702 -0.1090
    1DPPC   C1A17777   2.321  19.070   3.553 -0.2877  0.1234  0.1706
    1DPPC   C2A17778   2.144  18.900   3.903 -0.1638  0.0544 -0.2471
    1DPPC   C3A17779   1.978  18.504   4.084  0.0214 -0.0623 -0.0577
    1DPPC   C4A17780   1.941  18.081   4.265  0.0989 -0.2004  0.0167
    1DPPC   C1B17781   2.732  18.877   3.638  0.1281  0.2235 -0.2309
    1DPPC   C2B17782   2.566  18.715   4.092 -0.0923  0.1330 -0.1266
    1DPPC   C3B17783   2.302  18.810   4.453  0.1598  0.0984  0.0083
    1DPPC   C4B17784   2.123  18.841   4.813  0.1746 -0.0376 -0.3410
    1DPPC   NC317785  20.069   6.975   3.207  0.0237  0.0917 -0.0127
    1DPPC   PO417786  19.874   6.785   3.569 -0.0216 -0.0486  0.1369
    1DPPC   GL117787  19.990   6.978   3.964  0.4984  0.3277  0.2827
    1DPPC   GL217788  20.121   6.779   4.133 -0.1959  0.0368  0.0605
    1DPPC   C1A17789  19.977   7.236   4.282  0.0454 -0.0582  0.2415
    1DPPC   C2A17790  19.915   7.522   4.630  0.0712 -0.0196 -0.0932
    1DPPC   C3A17791  19.783   7.650   5.058 -0.0744  0.3330  0.0893
    1DPPC   C4A17792  19.552   7.608   5.418 -0.0153  0.0640  0.2950
    1DPPC   C1B17793  20.159   6.686   4.548 -0.2419  0.0269 -0.4328
    1DPPC   C2B17794  20.116   6.827   5.003  0.0791  0.4435 -0.1585
    1DPPC   C3B17795  20.196   6.869   5.417  0.4031  0.1975  0.0257
    1DPPC   C4B17796  20.342   7.044   5.732 -0.2007  0.0205 -0.0846
    1DPPC   NC317797   2.166  28.011   1.710  0.4103 -0.1630  0.1491
    1DPPC   PO417798   2.548  27.870   1.775  0.2589  0.1276  0.3156
    1DPPC   GL117799   2.342  27.698   2.134 -0.1476  0.0255 -0.0950
    1DPPC   GL217800   2.681  27.487   2.206  0.2607  0.0883  0.1681
    1DPPC   C1A17801   2.040  27.816   2.497  0.2512  0.0433 -0.0229
    1DPPC   C2A17802   1.914  27.595   2.809  0.0253 -0.3858  0.0329
    1DPPC   C3A17803   1.833  27.486   3.172  0.2247 -0.1423 -0.0517
    1DPPC   C4A17804   1.548  27.552   3.496  0.0374 -0.2208  0.0870
    1DPPC   C1B17805   2.344  27.343   2.453 -0.1082 -0.1752 -0.3077
    1DPPC   C2B17806   2.263  27.248   2.877  0.1345  0.3887  0.1954
    1DPPC   C3B17807   2.423  27.206   3.284 -0.0789  0.2337 -0.2434
    1DPPC   C4B17808   2.779  27.153   3.557  0.3453  0.1472 -0.4305
    1DPPC   NC317809  18.772  19.265   1.697 -0.1217  0.0576 -0.2325
    1DPPC   PO417810  18.518  18.941   1.920  0.1337 -0.1067  0.0967
    1DPPC   GL117811  18.342  19.126   2.151  0.0241  0.0439  0.1507
    1DPPC   GL217812  18.423  19.413   2.256 -0.0752  0.1713  0.1521
    1DPPC   C1A17813  18.001  19.123   2.368 -0.1073 -0.0990 -0.1172
    1DPPC   C2A17814  17.911  19.045   2.823 -0.1195 -0.1205  0.0697
    1DPPC   C3A17815  17.769  18.857   3.204  0.2101 -0.3092  0.2822
    1DPPC   C4A17816  17.919  18.771   3.578  0.0649 -0.0890  0.2309
    1DPPC   C1B17817  18.546  19.229   2.581  0.2931  0.0496  0.2052
    1DPPC   C2B17818  18.609  19.349   3.025  0.1032  0.2532 -0.2260
    1DPPC   C3B17819  18.547  19.504   3.396 -0.1683 -0.1091  0.1677
    1DPPC   C4B17820  18.801  19.709   3.768 -0.4213 -0.0441  0.2519
    1DPPC   NC317821  24.518   8.896   3.205  0.0670 -0.1535 -0.1010
    1DPPC   PO417822  24.819   8.628   3.199 -0.1249  0.3763 -0.1396
    1DPPC   GL117823  24.847   8.764   3.570  0.2406 -0.3078  0.0212
    1DPPC   GL217824  24.913   9.083   3.513 -0.0690  0.0949  0.2940
    1DPPC   C1A17825  24.705   8.663   3.997  0.0100  0.0478  0.1200
    1DPPC   C2A17826  24.937   8.756   4.386  0.2657  0.2243 -0.0281
    1DPPC   C3A17827  24.990   8.570   4.786  0.1524 -0.1658 -0.0028
    1DPPC   C4A17828  25.178   8.316   5.122 -0.0410 -0.0999  0.0903
    1DPPC   C1B17829  24.984   9.085   3.989 -0.0791  0.0032 -0.1633
    1DPPC   C2B17830  25.121   9.246   4.395 -0.0750 -0.0582 -0.2507
    1DPPC   C3B17831  25.194   9.041   4.828 -0.0569 -0.1031 -0.1168
    1DPPC   C4B17832  25.200   8.813   5.246 -0.0428  0.0580 -0.1954
    1DPPC   NC317833  24.421   7.710   2.930 -0.0390  0.1476  0.1796
    1DPPC   PO417834  24.206   7.624   3.267  0.0260  0.1166  0.0434
    1DPPC   GL117835  24.392   7.480   3.717  0.0164  0.2865 -0.0408
    1DPPC   GL217836  24.722   7.268   3.757  0.1085 -0.0716 -0.0598
    1DPPC   C1A17837  24.424   7.756   4.082 -0.0333 -0.0503 -0.0562
    1DPPC   C2A17838  24.636   8.109   4.098 -0.2487  0.0003 -0.1558
    1DPPC   C3A17839  24.685   8.299   4.470  0.0082 -0.3849 -0.0150
    1DPPC   C4A17840  24.320   8.326   4.782  0.2423 -0.1052 -0.0920
    1DPPC   C1B17841  24.575   7.118   4.199 -0.1919 -0.3206 -0.1143
    1DPPC   C2B17842  24.793   7.223   4.581 -0.0257  0.2437  0.2010
    1DPPC   C3B17843  24.862   7.312   5.028 -0.0794 -0.0486 -0.0120
    1DPPC   C4B17844  24.907   7.284   5.554 -0.1020  0.1441  0.2277
    1DPPC   NC317845  12.251   7.297   3.609 -0.2242 -0.2371  0.1137
    1DPPC   PO417846  12.582   7.395   3.710  0.1716 -0.0248 -0.2460
    1DPPC   GL117847  12.752   7.469   4.177  0.0158 -0.2375  0.4040
    1DPPC   GL217848  13.011   7.655   4.232 -0.1742 -0.2962  0.4249
    1DPPC   C1A17849  12.669   7.510   4.574 -0.1757  0.1138 -0.0337
    1DPPC   C2A17850  12.528   7.269   4.946 -0.0192  0.0164 -0.1541
    1DPPC   C3A17851  12.375   7.194   5.333 -0.1024 -0.1964 -0.0258
    1DPPC   C4A17852  12.108   6.926   5.653 -0.1076  0.0973  0.1164
    1DPPC   C1B17853  13.251   7.867   4.608 -0.1002  0.2387 -0.1024
    1DPPC   C2B17854  13.242   8.122   4.878 -0.1292 -0.1555 -0.2908
    1DPPC   C3B17855  13.436   8.484   5.016 -0.0752 -0.2501  0.0431
    1DPPC   C4B17856  13.279   8.963   5.069  0.0979 -0.0062 -0.2241
    1DPPC   NC317857  27.045  14.923   2.871  0.1152 -0.2067  0.4137
    1DPPC   PO417858  27.138  14.463   2.744  0.1319 -0.3517  0.1498
    1DPPC   GL117859  27.030  14.414   3.166 -0.1958  0.1298 -0.4295
    1DPPC   GL217860  26.747  14.352   3.328  0.2174  0.0781 -0.0779
    1DPPC   C1A17861  27.234  14.529   3.537 -0.0482 -0.0214 -0.0587
    1DPPC   C2A17862  27.166  14.645   3.842  0.2927 -0.0855 -0.0658
    1DPPC   C3A17863  27.349  14.474   4.196 -0.2201 -0.2903  0.0323
    1DPPC   C4A17864  27.656  14.386   4.564  0.4467 -0.0289 -0.2579
    1DPPC   C1B17865  26.729  14.386   3.686  0.1229  0.1703 -0.3235
    1DPPC   C2B17866  26.885  14.407   4.151  0.0119 -0.0178  0.4187
    1DPPC   C3B17867  26.841  14.580   4.584 -0.2993  0.1293  0.0103
    1DPPC   C4B17868  26.878  14.456   4.914  0.3075  0.1529  0.1508
    1DPPC   NC317869  21.304  13.677   1.984  0.2075  0.0361 -0.0144
    1DPPC   PO417870  21.635  13.936   2.139  0.2052 -0.0968 -0.0437
    1DPPC   GL117871  21.623  14.133   2.559  0.0108  0.1222 -0.1033
    1DPPC   GL217872  21.503  13.950   2.792 -0.1146  0.0564  0.0350
    1DPPC   C1A17873  21.748  14.453   2.965  0.2085 -0.3363  0.1444
    1DPPC   C2A17874  21.808  14.485   3.361  0.1736 -0.2825 -0.4753
    1DPPC   C3A17875  21.784  14.462   3.807  0.3378 -0.0689  0.1242
    1DPPC   C4A17876  21.762  14.489   4.206 -0.1824  0.2847 -0.1269
    1DPPC   C1B17877  21.722  14.000   3.200  0.0359 -0.1340 -0.2014
    1DPPC   C2B17878  21.581  14.009   3.600 -0.3168 -0.2035 -0.0734
    1DPPC   C3B17879  21.622  13.955   4.064 -0.0031  0.0712 -0.2912
    1DPPC   C4B17880  21.659  13.949   4.530  0.1221  0.1155  0.0944
    1DPPC   NC317881  21.930  12.937   2.209  0.0003  0.0240 -0.0882
    1DPPC   PO417882  21.925  13.114   2.662 -0.1152  0.1381 -0.0542
    1DPPC   GL117883  21.921  12.950   3.046  0.1671 -0.1842  0.0819
    1DPPC   GL217884  21.780  12.639   3.081  0.1889  0.0323 -0.0374
    1DPPC   C1A17885  21.902  13.142   3.450  0.1365 -0.3575 -0.1271
    1DPPC   C2A17886  22.016  13.228   3.754  0.0924  0.2624  0.3003
    1DPPC   C3A17887  22.023  13.145   4.132 -0.2605 -0.1832  0.2414
    1DPPC   C4A17888  21.977  13.144   4.575  0.1236  0.2906 -0.0198
    1DPPC   C1B17889  21.819  12.667   3.470  0.1742  0.0324 -0.2956
    1DPPC   C2B17890  21.661  12.855   3.815 -0.1274 -0.0744  0.1691
    1DPPC   C3B17891  21.637  12.896   4.274 -0.0399  0.4041  0.1875
    1DPPC   C4B17892  21.541  12.946   4.693 -0.0493  0.1747  0.1038
    1DPPC   NC317893  18.695  12.258   2.725  0.0063  0.0021 -0.3013
    1DPPC   PO417894  18.240  12.202   2.566  0.2578 -0.0692 -0.0597
    1DPPC   GL117895  18.276  12.151   3.101  0.0928  0.2092  0.1951
    1DPPC   GL217896  18.515  12.252   3.206 -0.1331 -0.1389  0.2289
    1DPPC   C1A17897  18.111  12.167   3.543 -0.0300  0.1968  0.1165
    1DPPC   C2A17898  18.094  12.291   3.912  0.0178  0.1799  0.0294
    1DPPC   C3A17899  18.047  12.459   4.253 -0.2234  0.1865  0.1171
    1DPPC   C4A17900  17.936  12.590   4.601  0.1009  0.1885  0.0242
    1DPPC   C1B17901  18.595  12.409   3.622  0.0279 -0.0849  0.2288
    1DPPC   C2B17902  18.606  12.469   4.098  0.2110 -0.0035 -0.0669
    1DPPC   C3B17903  18.490  12.638   4.489  0.1969 -0.0344  0.1558
    1DPPC   C4B17904  18.480  12.683   4.891 -0.0872  0.1085 -0.1416
    1DPPC   NC317905  22.497  11.637   2.383  0.1497 -0.0708  0.1236
    1DPPC   PO417906  22.299  11.203   2.611  0.0053  0.0954 -0.0980
    1DPPC   GL117907  22.180  11.235   3.028 -0.0781  0.0331 -0.0528
    1DPPC   GL217908  22.529  11.026   3.002 -0.2800  0.0436 -0.2316
    1DPPC   C1A17909  22.325  11.390   3.522 -0.2436  0.0910 -0.0805
    1DPPC   C2A17910  22.413  11.311   3.976 -0.1325  0.1349 -0.1298
    1DPPC   C3A17911  22.453  11.139   4.382  0.0843  0.2577 -0.1621
    1DPPC   C4A17912  22.430  10.905   4.899 -0.0187 -0.0251  0.0626
    1DPPC   C1B17913  22.606  10.932   3.477 -0.1042 -0.0929 -0.0359
    1DPPC   C2B17914  22.607  10.891   3.899 -0.1898 -0.0355 -0.1785
    1DPPC   C3B17915  22.945  10.738   4.134 -0.0599  0.5768 -0.0095
    1DPPC   C4B17916  23.092  10.519   4.472 -0.2087  0.1543 -0.4747
    1DPPC   NC317917  14.570   6.364   4.165 -0.0659 -0.1474 -0.0191
    1DPPC   PO417918  14.818   6.538   3.975 -0.0233 -0.1530  0.2110
    1DPPC   GL117919  15.105   6.830   4.220 -0.1237  0.1225 -0.0357
    1DPPC   GL217920  15.375   6.655   4.353 -0.0826 -0.1144  0.0848
    1DPPC   C1A17921  15.297   7.207   4.451 -0.0495 -0.1452 -0.1989
    1DPPC   C2A17922  15.253   7.340   4.834 -0.1774 -0.1622  0.4005
    1DPPC   C3A17923  15.296   7.500   5.261 -0.0111 -0.0070 -0.1412
    1DPPC   C4A17924  15.063   7.280   5.742 -0.2486 -0.0123  0.0250
    1DPPC   C1B17925  15.283   6.705   4.721 -0.0258  0.0917  0.0204
    1DPPC   C2B17926  15.619   6.654   5.128  0.2636 -0.0839 -0.0234
    1DPPC   C3B17927  15.556   6.396   5.468 -0.1246  0.3175  0.3405
    1DPPC   C4B17928  15.361   6.347   5.901 -0.0726 -0.2113  0.0540
    1DPPC   NC317929  28.230  17.431   3.388 -0.1623 -0.0426  0.0131
    1DPPC   PO417930  28.075  17.010   3.271  0.0288 -0.0684 -0.4666
    1DPPC   GL117931  28.364  16.753   3.509 -0.4198  0.1957 -0.1268
    1DPPC   GL217932  28.380  17.011   3.703  0.1892 -0.1173 -0.0095
    1DPPC   C1A17933  28.457  16.649   4.003 -0.1331  0.0979 -0.0108
    1DPPC   C2A17934  28.396  16.641   4.338 -0.0036  0.4406 -0.0063
    1DPPC   C3A17935  28.405  16.946   4.683  0.4290 -0.1042 -0.2592
    1DPPC   C4A17936  28.676  17.174   4.828  0.2541  0.0785  0.0270
    1DPPC   C1B17937  28.432  17.160   4.122 -0.0253  0.0165  0.0336
    1DPPC   C2B17938  28.181  17.326   4.415  0.1867 -0.1071 -0.2219
    1DPPC   C3B17939  28.148  17.403   4.800 -0.3179 -0.1867  0.0671
    1DPPC   C4B17940  28.366  17.792   5.128  0.1709 -0.0676  0.3051
    1DPPC   NC317941  18.343  12.549   2.263  0.2363 -0.0641  0.0411
    1DPPC   PO417942  18.649  12.761   2.617 -0.1168 -0.0135 -0.3369
    1DPPC   GL117943  18.285  12.747   2.921 -0.0520  0.2860  0.0922
    1DPPC   GL217944  18.043  12.507   2.877 -0.0916  0.1452 -0.0876
    1DPPC   C1A17945  18.190  12.688   3.314 -0.4729 -0.3056  0.0002
    1DPPC   C2A17946  18.249  12.764   3.772 -0.1549 -0.1338 -0.3011
    1DPPC   C3A17947  18.372  13.014   4.198 -0.0779  0.1867 -0.0320
    1DPPC   C4A17948  18.183  13.041   4.492 -0.0634 -0.2923 -0.0345
    1DPPC   C1B17949  17.730  12.359   3.233 -0.2350  0.1087 -0.1558
    1DPPC   C2B17950  17.762  12.490   3.607 -0.0388  0.0560  0.1321
    1DPPC   C3B17951  17.560  12.606   4.018  0.1120  0.0413 -0.2420
    1DPPC   C4B17952  17.345  12.726   4.449  0.1608 -0.0687 -0.1773
    1DPPC   NC317953  12.723   6.622   3.694 -0.0766 -0.0634 -0.0919
    1DPPC   PO417954  12.498   6.284   3.676  0.1131 -0.1324 -0.3513
    1DPPC   GL117955  12.429   6.471   4.109 -0.0288  0.1400  0.2820
    1DPPC   GL217956  12.172   6.517   4.335  0.2271  0.0563 -0.1043
    1DPPC   C1A17957  12.669   6.472   4.398  0.1094  0.0852  0.1052
    1DPPC   C2A17958  12.562   6.688   4.727 -0.0032  0.2895  0.1428
    1DPPC   C3A17959  12.418   6.656   5.170  0.0477 -0.2096  0.1544
    1DPPC   C4A17960  12.559   6.722   5.613 -0.1217  0.0045 -0.0215
    1DPPC   C1B17961  12.294   6.129   4.552  0.2113 -0.0343 -0.4668
    1DPPC   C2B17962  12.229   5.915   4.976  0.2855 -0.3106  0.1688
    1DPPC   C3B17963  12.122   5.662   5.324  0.1326  0.1479 -0.1896
    1DPPC   C4B17964  12.157   5.372   5.654  0.0290 -0.3891 -0.1141
    1DPPC   NC317965  19.044   9.204   3.315  0.0118 -0.0963  0.0563
    1DPPC   PO417966  18.886   8.842   3.060 -0.1580  0.3033 -0.2816
    1DPPC   GL117967  18.546   9.033   3.356 -0.0592 -0.1253  0.0900
    1DPPC   GL217968  18.338   9.253   3.317 -0.0122 -0.0429 -0.3193
    1DPPC   C1A17969  18.122   8.819   3.537  0.0551  0.3169 -0.2215
    1DPPC   C2A17970  17.953   8.825   4.040 -0.1632  0.0580  0.0126
    1DPPC   C3A17971  17.981   8.935   4.439 -0.2469  0.2228 -0.1771
    1DPPC   C4A17972  17.961   9.029   4.892 -0.1813 -0.1192 -0.0203
    1DPPC   C1B17973  18.345   9.263   3.739  0.0883 -0.2470 -0.1564
    1DPPC   C2B17974  18.301   9.288   4.197 -0.2942  0.0585  0.3163
    1DPPC   C3B17975  18.538   8.931   4.385  0.0918  0.0369 -0.2284
    1DPPC   C4B17976  18.910   8.714   4.535  0.0023  0.3681 -0.1239
    1DPPC   NC317977  20.800   4.975   3.807 -0.0403  0.1670 -0.0155
    1DPPC   PO417978  20.873   4.667   4.026 -0.0616 -0.0311  0.0064
    1DPPC   GL117979  21.009   4.481   4.468 -0.1956  0.1704 -0.0293
    1DPPC   GL217980  21.255   4.226   4.505 -0.0974  0.2065  0.2944
    1DPPC   C1A17981  20.920   4.550   4.871  0.1577  0.0747 -0.0067
    1DPPC   C2A17982  21.024   4.481   5.215  0.0829 -0.2664 -0.2081
    1DPPC   C3A17983  21.375   4.445   5.472  0.2025  0.2488  0.1145
    1DPPC   C4A17984  21.786   4.575   5.486  0.2203 -0.2671 -0.0187
    1DPPC   C1B17985  21.276   4.219   4.852 -0.2799 -0.0427 -0.0170
    1DPPC   C2B17986  21.179   3.988   5.152  0.3140 -0.2431 -0.1910
    1DPPC   C3B17987  21.228   3.932   5.562 -0.0451  0.2200 -0.1536
    1DPPC   C4B17988  21.075   3.906   5.995  0.0972  0.1322 -0.0143
    1DPPC   NC317989   5.176   2.053   2.745 -0.0044  0.1638 -0.3286
    1DPPC   PO417990   4.753   2.081   2.715  0.2406 -0.1165 -0.2476
    1DPPC   GL117991   4.866   2.155   3.168 -0.0984 -0.0664  0.2569
    1DPPC   GL217992   4.536   2.369   3.267 -0.0999  0.0948  0.0836
    1DPPC   C1A17993   5.116   2.489   3.365  0.0523  0.0910 -0.2153
    1DPPC   C2A17994   5.210   2.436   3.826  0.1990  0.0333  0.0306
    1DPPC   C3A17995   5.273   2.200   4.282  0.2080 -0.0972  0.0222
    1DPPC   C4A17996   5.174   1.907   4.652 -0.1704 -0.0326 -0.0351
    1DPPC   C1B17997   4.689   2.300   3.592  0.3335 -0.2447 -0.1628
    1DPPC   C2B17998   4.671   2.496   4.017  0.1266  0.3923  0.1233
    1DPPC   C3B17999   4.789   2.451   4.422 -0.1934  0.1114 -0.0677
    1DPPC   C4B18000   5.028   2.428   4.797 -0.2172 -0.1715  0.1895
    1DPPC   NC318001  15.914   6.939   3.654 -0.1177 -0.2460  0.0133
    1DPPC   PO418002  15.808   6.617   3.766 -0.0084 -0.0406  0.1732
    1DPPC   GL118003  15.805   6.401   4.165 -0.1301  0.3316  0.0170
    1DPPC   GL218004  15.678   6.083   4.213 -0.0985 -0.0693  0.0103
    1DPPC   C1A18005  15.743   6.390   4.612  0.2396 -0.4219  0.0451
    1DPPC   C2A18006  15.728   6.205   4.977  0.2216 -0.0716 -0.0569
    1DPPC   C3A18007  15.611   5.918   5.396  0.0383  0.0594 -0.1489
    1DPPC   C4A18008  15.489   5.765   5.834 -0.0630 -0.1560  0.3256
    1DPPC   C1B18009  15.774   5.786   4.556 -0.0323  0.0434 -0.2585
    1DPPC   C2B18010  15.959   5.738   5.016 -0.0709  0.0783  0.2747
    1DPPC   C3B18011  16.192   5.831   5.333 -0.2774 -0.5123 -0.2446
    1DPPC   C4B18012  16.516   5.879   5.646 -0.3542 -0.0627 -0.1106
    1DPPC   NC318013  26.407   7.094   2.534 -0.1536  0.0942 -0.1699
    1DPPC   PO418014  26.362   6.928   2.854 -0.0555  0.1103  0.1148
    1DPPC   GL118015  26.433   6.628   3.183  0.1560 -0.1852  0.2750
    1DPPC   GL218016  26.699   6.492   3.249 -0.0423  0.0683  0.2045
    1DPPC   C1A18017  26.304   6.530   3.704 -0.3492  0.2641 -0.0094
    1DPPC   C2A18018  26.500   6.438   4.047  0.1114 -0.0323 -0.0478
    1DPPC   C3A18019  26.508   6.625   4.403 -0.2528 -0.0127 -0.1096
    1DPPC   C4A18020  26.632   6.914   4.735 -0.0251 -0.1114 -0.1010
    1DPPC   C1B18021  26.696   6.265   3.663  0.1404  0.2008 -0.2849
    1DPPC   C2B18022  26.867   6.076   3.947 -0.1009 -0.3534 -0.2468
    1DPPC   C3B18023  26.844   6.270   4.386 -0.1655 -0.0185  0.1026
    1DPPC   C4B18024  26.784   6.308   4.775 -0.0154  0.1020 -0.1350
    1DPPC   NC318025  16.368   9.905   2.885  0.2703  0.3964  0.0098
    1DPPC   PO418026  15.947   9.811   3.041 -0.1815  0.0794 -0.1909
    1DPPC   GL118027  15.971  10.053   3.437  0.0193 -0.1418  0.3737
    1DPPC   GL218028  16.166  10.274   3.369  0.0202 -0.0353 -0.0931
    1DPPC   C1A18029  15.788  10.121   3.813  0.0705 -0.1685 -0.0099
    1DPPC   C2A18030  15.818  10.087   4.251 -0.2260 -0.0716  0.0347
    1DPPC   C3A18031  15.726  10.232   4.646 -0.0104 -0.1349 -0.0304
    1DPPC   C4A18032  15.312  10.360   4.782 -0.0004  0.0040  0.3513
    1DPPC   C1B18033  16.245  10.315   3.827 -0.0085  0.2750 -0.1256
    1DPPC   C2B18034  16.265  10.403   4.275  0.2016  0.0887  0.1280
    1DPPC   C3B18035  16.057  10.658   4.594  0.2833 -0.0515  0.1382
    1DPPC   C4B18036  16.098  10.828   4.923 -0.0804 -0.1343 -0.4291
    1DPPC   NC318037  17.798  18.336   2.247  0.0817 -0.1920 -0.0588
    1DPPC   PO418038  17.256  18.413   2.324 -0.1624  0.0570 -0.4062
    1DPPC   GL118039  17.551  18.461   2.710 -0.0491  0.2190  0.0933
    1DPPC   GL218040  17.859  18.579   2.748 -0.0578  0.0524  0.2415
    1DPPC   C1A18041  17.400  18.536   3.171  0.4015  0.0972 -0.3371
    1DPPC   C2A18042  17.429  18.819   3.538  0.3548  0.1096 -0.0612
    1DPPC   C3A18043  17.485  18.674   3.904 -0.0433  0.3341 -0.0368
    1DPPC   C4A18044  17.694  18.551   4.355 -0.2930 -0.0574  0.1770
    1DPPC   C1B18045  17.893  18.385   3.167  0.0151 -0.0523 -0.1109
    1DPPC   C2B18046  17.662  18.295   3.609  0.0872 -0.1344 -0.0067
    1DPPC   C3B18047  17.490  18.171   3.922 -0.0608  0.1667  0.0151
    1DPPC   C4B18048  17.314  18.233   4.290  0.2458  0.2633 -0.1099
    1DPPC   NC318049  21.493   2.551   3.923  0.0219 -0.2603 -0.2620
    1DPPC   PO418050  21.263   2.228   3.856  0.4089 -0.0394  0.1323
    1DPPC   GL118051  21.039   2.548   4.116  0.0961 -0.1098 -0.2492
    1DPPC   GL218052  20.837   2.381   4.259  0.1950  0.0230  0.1843
    1DPPC   C1A18053  21.147   2.714   4.555  0.0163  0.1338  0.1898
    1DPPC   C2A18054  21.339   2.579   5.000 -0.2199  0.0252 -0.3049
    1DPPC   C3A18055  21.294   2.372   5.395 -0.0774  0.3149  0.2748
    1DPPC   C4A18056  21.595   2.175   5.733 -0.0743  0.0802  0.2285
    1DPPC   C1B18057  20.860   2.251   4.657  0.1903 -0.3061 -0.0236
    1DPPC   C2B18058  20.929   2.253   5.014 -0.1754 -0.0033 -0.0372
    1DPPC   C3B18059  20.840   2.121   5.368  0.2125 -0.0418 -0.2176
    1DPPC   C4B18060  20.658   2.190   5.737  0.0073  0.4189  0.1677
    1DPPC   NC318061  20.636   8.566   3.114 -0.1808 -0.0950  0.1402
    1DPPC   PO418062  20.210   8.628   3.185 -0.1323 -0.1376  0.1547
    1DPPC   GL118063  20.265   8.616   3.642  0.1281  0.1467 -0.2358
    1DPPC   GL218064  20.524   8.553   3.650  0.1563 -0.2576  0.0671
    1DPPC   C1A18065  20.199   8.608   4.030 -0.0318  0.0541 -0.2006
    1DPPC   C2A18066  20.181   8.536   4.392  0.1131  0.0823 -0.2475
    1DPPC   C3A18067  20.265   8.554   4.823 -0.1023  0.0239  0.1176
    1DPPC   C4A18068  19.988   8.466   5.168  0.0247 -0.0042 -0.0928
    1DPPC   C1B18069  20.756   8.437   3.945 -0.0751 -0.1917 -0.0838
    1DPPC   C2B18070  20.650   8.252   4.271  0.0056 -0.0403 -0.1086
    1DPPC   C3B18071  20.678   8.252   4.729 -0.1847 -0.1863  0.2195
    1DPPC   C4B18072  20.678   8.378   5.195 -0.0819  0.2657  0.1454
    1DPPC   NC318073  13.459   6.195   3.900  0.3616 -0.1275  0.1624
    1DPPC   PO418074  13.546   5.866   4.237  0.2083 -0.2195  0.0347
    1DPPC   GL118075  13.476   6.203   4.432 -0.0930 -0.0896 -0.1378
    1DPPC   GL218076  13.197   6.371   4.377 -0.0615 -0.0206 -0.1327
    1DPPC   C1A18077  13.584   6.405   4.825  0.0679 -0.0326  0.2652
    1DPPC   C2A18078  13.481   6.467   5.217  0.0979 -0.0888  0.2407
    1DPPC   C3A18079  13.215   6.654   5.554 -0.0958 -0.2338 -0.1900
    1DPPC   C4A18080  12.952   6.888   5.930  0.4046 -0.2620 -0.3008
    1DPPC   C1B18081  13.017   6.553   4.744  0.0205  0.2050 -0.0598
    1DPPC   C2B18082  12.954   6.535   5.142 -0.1503 -0.1963  0.0941
    1DPPC   C3B18083  12.798   6.333   5.533 -0.1499 -0.0203  0.1738
    1DPPC   C4B18084  12.618   6.328   5.951 -0.1579 -0.0947 -0.1510
    1DPPC   NC318085   2.673   7.762   3.383 -0.1450 -0.0321 -0.0669
    1DPPC   PO418086   2.564   7.319   3.119  0.1040  0.0212  0.0698
    1DPPC   GL118087   2.054   7.276   3.363 -0.0684 -0.1803 -0.0560
    1DPPC   GL218088   1.777   7.460   3.180 -0.0724 -0.0301 -0.2356
    1DPPC   C1A18089   1.880   7.146   3.657  0.0413 -0.1733  0.3516
    1DPPC   C2A18090   1.698   7.228   4.010  0.0012  0.1334 -0.2434
    1DPPC   C3A18091   1.544   7.166   4.415 -0.0237 -0.4251 -0.1664
    1DPPC   C4A18092   1.360   7.126   4.794  0.4018 -0.4053  0.0891
    1DPPC   C1B18093   1.664   7.589   3.647 -0.1557  0.0059  0.3042
    1DPPC   C2B18094   1.765   7.729   4.079  0.3583  0.1372 -0.0687
    1DPPC   C3B18095   1.473   7.697   4.439 -0.2167  0.0639  0.3335
    1DPPC   C4B18096   1.004   7.845   4.402  0.2369 -0.0200 -0.0140
    1DPPC   NC318097  22.621  20.117   2.226 -0.0976  0.0231 -0.0792
    1DPPC   PO418098  22.781  20.388   2.502  0.1215  0.0968  0.2439
    1DPPC   GL118099  22.425  20.183   2.781 -0.2341 -0.0932  0.0625
    1DPPC   GL218100  22.124  20.285   3.035  0.2611 -0.2328 -0.0799
    1DPPC   C1A18101  22.350  19.841   3.109 -0.3084  0.0778 -0.0863
    1DPPC   C2A18102  22.111  19.778   3.467  0.0481  0.1079 -0.3159
    1DPPC   C3A18103  22.191  19.776   3.865  0.0774 -0.3721 -0.0630
    1DPPC   C4A18104  22.287  19.605   4.406 -0.0394  0.2498 -0.1257
    1DPPC   C1B18105  22.330  20.179   3.481  0.1472  0.0315  0.3742
    1DPPC   C2B18106  22.485  20.134   3.923  0.1204 -0.1571  0.1466
    1DPPC   C3B18107  22.575  20.402   4.218 -0.1531 -0.2817  0.0358
    1DPPC   C4B18108  22.896  20.362   4.404 -0.2034  0.1324 -0.0137
    1DPPC   NC318109  15.712   5.977   3.301 -0.1510 -0.0021 -0.2332
    1DPPC   PO418110  16.074   5.761   3.583  0.2627 -0.1155  0.3117
    1DPPC   GL118111  16.051   5.700   4.048  0.1809  0.1051  0.0335
    1DPPC   GL218112  16.159   6.019   4.042 -0.0361 -0.4290  0.0378
    1DPPC   C1A18113  16.128   5.490   4.434 -0.3329  0.2598 -0.2822
    1DPPC   C2A18114  16.345   5.439   4.884  0.4028  0.2835 -0.0014
    1DPPC   C3A18115  16.459   5.461   5.223  0.1357  0.2104  0.0720
    1DPPC   C4A18116  16.411   5.336   5.707  0.1982 -0.0236 -0.0167
    1DPPC   C1B18117  16.162   6.147   4.464 -0.0605  0.0229  0.2768
    1DPPC   C2B18118  16.210   6.282   4.898  0.0101  0.0988  0.0431
    1DPPC   C3B18119  16.037   6.370   5.286  0.2429 -0.1181  0.0282
    1DPPC   C4B18120  16.006   6.177   5.628  0.2848 -0.1294 -0.1096
    1DPPC   NC318121  18.842   9.919   2.875  0.0574  0.0841  0.1590
    1DPPC   PO418122  18.726   9.504   3.108  0.0418  0.0244  0.2185
    1DPPC   GL118123  18.587   9.721   3.447 -0.0425  0.1047  0.0955
    1DPPC   GL218124  18.308   9.900   3.565 -0.0265 -0.0970  0.0123
    1DPPC   C1A18125  18.604   9.720   3.958 -0.0419  0.2334  0.3437
    1DPPC   C2A18126  18.762   9.816   4.385 -0.1142  0.0082  0.0546
    1DPPC   C3A18127  18.655   9.825   4.778 -0.3845  0.0918 -0.1065
    1DPPC   C4A18128  18.467   9.857   5.150 -0.1494 -0.1073 -0.2268
    1DPPC   C1B18129  18.399  10.187   3.936 -0.1098  0.0621  0.2215
    1DPPC   C2B18130  18.430  10.266   4.413 -0.2700 -0.0328  0.1329
    1DPPC   C3B18131  18.560  10.341   4.801 -0.2297  0.2189  0.0938
    1DPPC   C4B18132  18.681  10.286   5.229  0.1434  0.0276  0.0225
    1DPPC   NC318133   8.704  19.825   2.439  0.0334  0.1857  0.2594
    1DPPC   PO418134   9.073  20.009   2.359  0.0021  0.1564 -0.2138
    1DPPC   GL118135   9.116  19.973   2.813 -0.0730 -0.0976 -0.0461
    1DPPC   GL218136   9.156  19.691   2.966 -0.0036 -0.3116  0.4020
    1DPPC   C1A18137   8.850  19.990   3.311 -0.0351  0.4117  0.1264
    1DPPC   C2A18138   8.663  19.624   3.539  0.0362 -0.1605  0.0053
    1DPPC   C3A18139   8.612  19.622   3.957 -0.1374 -0.3440  0.0073
    1DPPC   C4A18140   8.594  19.452   4.320  0.0738 -0.1081  0.0358
    1DPPC   C1B18141   9.168  19.498   3.288 -0.1563 -0.0513 -0.0293
    1DPPC   C2B18142   8.988  19.238   3.585  0.1630  0.1957 -0.2679
    1DPPC   C3B18143   8.531  19.148   3.828  0.1503  0.1266 -0.0542
    1DPPC   C4B18144   8.218  19.297   4.006 -0.0148 -0.2928 -0.1676
    1DPPC   NC318145  19.727  12.530   2.561 -0.0386 -0.0872 -0.0181
    1DPPC   PO418146  19.616  12.123   2.526  0.1223  0.3414 -0.2429
    1DPPC   GL118147  19.527  12.239   3.027  0.1056 -0.1423 -0.2468
    1DPPC   GL218148  19.508  11.932   3.179 -0.0133  0.1503  0.1338
    1DPPC   C1A18149  19.590  12.451   3.425  0.2744 -0.2417 -0.5573
    1DPPC   C2A18150  19.742  12.617   3.788 -0.1934  0.3798  0.0065
    1DPPC   C3A18151  19.748  12.676   4.157  0.0125 -0.1761  0.0247
    1DPPC   C4A18152  19.728  12.703   4.574  0.0058  0.1459 -0.1340
    1DPPC   C1B18153  19.374  12.004   3.513  0.2676  0.0413  0.0988
    1DPPC   C2B18154  19.508  12.120   3.906 -0.0351  0.3431 -0.1582
    1DPPC   C3B18155  19.479  12.113   4.376 -0.3594 -0.2146  0.1357
    1DPPC   C4B18156  19.189  12.041   4.750  0.0496  0.1719  0.0966
    1DPPC   NC318157  21.058  14.266   1.783  0.0732  0.1323  0.1952
    1DPPC   PO418158  20.968  14.594   2.111 -0.0732 -0.1138  0.1969
    1DPPC   GL118159  21.018  14.756   2.443  0.1440  0.0617 -0.0550
    1DPPC   GL218160  20.933  15.047   2.614 -0.0172 -0.0484  0.0957
    1DPPC   C1A18161  21.004  14.585   2.872 -0.2442 -0.1037  0.2626
    1DPPC   C2A18162  20.873  14.670   3.290 -0.2696 -0.0684 -0.0289
    1DPPC   C3A18163  20.910  14.887   3.628  0.3748 -0.0432 -0.0439
    1DPPC   C4A18164  21.009  14.761   4.003 -0.0615  0.0933 -0.3078
    1DPPC   C1B18165  21.128  15.090   3.015  0.0430 -0.1731 -0.2408
    1DPPC   C2B18166  21.220  15.201   3.380  0.3283  0.0858 -0.0562
    1DPPC   C3B18167  21.198  15.238   3.924 -0.0450 -0.1641 -0.2772
    1DPPC   C4B18168  21.121  15.332   4.288 -0.1505  0.2821  0.0355
    1DPPC   NC318169  23.263   5.512   3.557 -0.1599  0.2976  0.1457
    1DPPC   PO418170  23.439   5.366   3.961  0.0692 -0.2975  0.1307
    1DPPC   GL118171  23.328   4.974   4.175  0.3795  0.3252 -0.4041
    1DPPC   GL218172  23.550   4.718   4.099  0.1711 -0.0919  0.0404
    1DPPC   C1A18173  23.047   4.647   4.367 -0.1156 -0.1346  0.0503
    1DPPC   C2A18174  22.858   4.674   4.662  0.0901  0.2072  0.2380
    1DPPC   C3A18175  22.667   4.872   5.045 -0.3824  0.1905 -0.0961
    1DPPC   C4A18176  22.386   5.028   5.375 -0.0507 -0.0886 -0.0433
    1DPPC   C1B18177  23.430   4.795   4.609  0.1122 -0.0469 -0.1099
    1DPPC   C2B18178  23.186   4.748   4.990 -0.2631  0.4566  0.0846
    1DPPC   C3B18179  23.052   4.802   5.374  0.3103 -0.1639 -0.0039
    1DPPC   C4B18180  22.812   4.845   5.828 -0.2274 -0.2644 -0.0038
    1DPPC   NC318181  20.615  10.302   2.970  0.1604 -0.1201  0.1115
    1DPPC   PO418182  20.917  10.720   3.010 -0.0523 -0.0110  0.2672
    1DPPC   GL118183  20.916  10.960   3.332 -0.0272 -0.1172  0.4046
    1DPPC   GL218184  21.051  11.249   3.287 -0.0595  0.1810  0.0867
    1DPPC   C1A18185  20.893  11.025   3.745  0.1111  0.0043 -0.0108
    1DPPC   C2A18186  20.961  11.089   4.144  0.0190 -0.0720  0.0162
    1DPPC   C3A18187  21.006  11.149   4.526  0.3856 -0.0027 -0.0437
    1DPPC   C4A18188  20.753  10.849   4.778  0.1527 -0.2833 -0.1244
    1DPPC   C1B18189  21.360  11.308   3.656 -0.3513  0.0493 -0.0514
    1DPPC   C2B18190  21.371  11.459   4.071  0.1383  0.1136 -0.1877
    1DPPC   C3B18191  21.243  11.595   4.478  0.0654 -0.0020 -0.0205
    1DPPC   C4B18192  21.385  12.023   4.607 -0.0769 -0.2482 -0.0920
    1DPPC   NC318193  19.578  23.725   1.529 -0.0443  0.0619 -0.1552
    1DPPC   PO418194  19.653  23.431   1.961  0.3159  0.2396  0.2446
    1DPPC   GL118195  19.564  23.588   2.304  0.0116 -0.0874 -0.0550
    1DPPC   GL218196  19.842  23.593   2.472  0.2157  0.0638  0.1546
    1DPPC   C1A18197  19.393  23.858   2.587  0.2588 -0.1696 -0.0484
    1DPPC   C2A18198  19.374  23.819   3.029 -0.1760 -0.2058  0.2997
    1DPPC   C3A18199  19.215  24.030   3.421  0.1088 -0.2587  0.0312
    1DPPC   C4A18200  19.204  24.128   3.887 -0.1101  0.2370  0.3979
    1DPPC   C1B18201  19.867  23.654   2.902 -0.4440 -0.2098  0.0841
    1DPPC   C2B18202  19.756  23.635   3.359 -0.3347  0.1669  0.2989
    1DPPC   C3B18203  19.808  23.297   3.680 -0.1918 -0.0918  0.2616
    1DPPC   C4B18204  20.084  23.274   4.023  0.2620 -0.0874 -0.2886
    1DPPC   NC318205  27.878   2.564   2.561 -0.0062  0.4667 -0.0079
    1DPPC   PO418206  28.214   2.553   2.839  0.0742 -0.1555 -0.1236
    1DPPC   GL118207  28.306   2.722   3.251 -0.1045  0.1558 -0.0986
    1DPPC   GL218208  27.996   2.702   3.465 -0.0411  0.0311 -0.2795
    1DPPC   C1A18209  28.606   2.812   3.677  0.0797  0.1927 -0.2890
    1DPPC   C2A18210  28.553   2.836   4.182  0.0168  0.0006  0.1883
    1DPPC   C3A18211  28.795   2.781   4.506  0.0874  0.0264 -0.0701
    1DPPC   C4A18212  28.733   2.874   4.917 -0.0201 -0.3002 -0.0214
    1DPPC   C1B18213  28.007   2.664   3.950 -0.0937  0.2794  0.1051
    1DPPC   C2B18214  27.933   2.483   4.363 -0.1544 -0.1082 -0.1890
    1DPPC   C3B18215  28.358   2.647   4.704  0.0712  0.2626  0.3578
    1DPPC   C4B18216  28.413   2.436   5.126 -0.2313 -0.0869  0.0693
    1DPPC   NC318217  19.377   2.799   4.147 -0.1186  0.0403 -0.2847
    1DPPC   PO418218  19.746   2.545   4.077  0.0537 -0.0842 -0.0943
    1DPPC   GL118219  19.784   2.438   4.382 -0.1413  0.1329 -0.0378
    1DPPC   GL218220  19.680   2.792   4.538 -0.1134 -0.0601  0.0751
    1DPPC   C1A18221  19.921   2.321   4.760  0.0699 -0.0678 -0.0553
    1DPPC   C2A18222  19.828   2.234   5.125 -0.4053  0.1461 -0.1153
    1DPPC   C3A18223  19.564   2.180   5.384  0.3798 -0.3558 -0.1096
    1DPPC   C4A18224  19.231   2.405   5.520  0.0119 -0.1666  0.0595
    1DPPC   C1B18225  19.797   2.716   4.971 -0.0900  0.1130  0.0959
    1DPPC   C2B18226  19.840   2.687   5.403 -0.0389 -0.2019 -0.1315
    1DPPC   C3B18227  20.141   2.852   5.779  0.0566 -0.0566  0.1066
    1DPPC   C4B18228  20.487   2.664   5.745 -0.4958 -0.0613  0.1170
    1DPPC   NC318229  19.039  11.637   2.500 -0.1911  0.1087  0.1310
    1DPPC   PO418230  19.114  11.991   2.722  0.1629 -0.1260 -0.0505
    1DPPC   GL118231  19.001  11.937   3.137 -0.1015  0.0598  0.0814
    1DPPC   GL218232  19.017  12.209   3.146  0.0774 -0.3757 -0.1528
    1DPPC   C1A18233  18.907  11.995   3.609  0.2540 -0.2111  0.0876
    1DPPC   C2A18234  18.943  12.061   4.107 -0.0801 -0.2501 -0.0004
    1DPPC   C3A18235  18.923  12.258   4.440 -0.0848  0.1495  0.1160
    1DPPC   C4A18236  18.759  12.229   4.862  0.0246  0.1108  0.1763
    1DPPC   C1B18237  19.058  12.424   3.479 -0.1213 -0.1256  0.2263
    1DPPC   C2B18238  19.190  12.488   3.902 -0.2089 -0.0805  0.1594
    1DPPC   C3B18239  19.306  12.574   4.330 -0.3903 -0.0283  0.1963
    1DPPC   C4B18240  19.271  12.491   4.775  0.0710  0.1142  0.0163
    1DPPC   NC318241   6.858  20.802   2.417  0.1164  0.0068  0.0846
    1DPPC   PO418242   6.742  20.249   2.348 -0.0455 -0.2714  0.0695
    1DPPC   GL118243   6.727  20.381   2.715 -0.1739 -0.1715  0.2356
    1DPPC   GL218244   6.987  20.322   2.855  0.1294  0.0814 -0.1428
    1DPPC   C1A18245   6.431  20.389   3.113  0.0070 -0.1731 -0.1095
    1DPPC   C2A18246   6.035  20.364   3.346 -0.0952 -0.2624  0.1353
    1DPPC   C3A18247   5.637  20.312   3.531  0.0100 -0.2152  0.0354
    1DPPC   C4A18248   5.379  20.460   3.891  0.3966 -0.0356 -0.0069
    1DPPC   C1B18249   6.827  20.681   3.135 -0.0600  0.4106  0.1481
    1DPPC   C2B18250   6.707  20.737   3.492  0.5793  0.2269 -0.0417
    1DPPC   C3B18251   6.755  20.849   3.905  0.1712 -0.1203 -0.1717
    1DPPC   C4B18252   6.963  20.726   4.293  0.0092  0.2338 -0.1845
    1DPPC   NC318253  18.393  13.826   2.537  0.1139 -0.1657 -0.1170
    1DPPC   PO418254  17.926  13.722   2.463 -0.2071 -0.0292 -0.2555
    1DPPC   GL118255  17.940  13.511   2.862  0.0358  0.0694  0.3024
    1DPPC   GL218256  18.275  13.651   3.026  0.2895  0.1708  0.0346
    1DPPC   C1A18257  17.874  13.518   3.326  0.0924  0.2343 -0.1714
    1DPPC   C2A18258  17.908  13.657   3.732  0.0838 -0.1914  0.3076
    1DPPC   C3A18259  17.749  13.865   3.981  0.0368  0.1094  0.0102
    1DPPC   C4A18260  17.598  13.787   4.448  0.3457  0.1886  0.0412
    1DPPC   C1B18261  18.320  13.706   3.457 -0.1375 -0.0538 -0.0260
    1DPPC   C2B18262  18.428  13.791   3.824  0.0307  0.0835 -0.0913
    1DPPC   C3B18263  18.496  13.879   4.230 -0.0667 -0.0068  0.0192
    1DPPC   C4B18264  18.774  13.800   4.541  0.3521  0.0890  0.1387
    1DPPC   NC318265  13.919  29.590   3.131  0.3250 -0.0388  0.1376
    1DPPC   PO418266  13.750  29.743   3.488  0.1771  0.0782 -0.2411
    1DPPC   GL118267  13.984  29.517   3.831  0.0145 -0.1486 -0.2936
    1DPPC   GL218268  13.784  29.266   3.915 -0.5002 -0.0056 -0.1291
    1DPPC   C1A18269  14.119  29.594   4.290  0.1188 -0.0245 -0.1087
    1DPPC   C2A18270  14.241  29.558   4.745 -0.0178  0.0699 -0.0648
    1DPPC   C3A18271  14.368  29.229   4.989  0.2031  0.0153  0.0268
    1DPPC   C4A18272  14.598  28.913   5.160 -0.2018  0.0542 -0.4000
    1DPPC   C1B18273  13.980  29.066   4.222  0.0551 -0.0045 -0.0449
    1DPPC   C2B18274  14.259  29.128   4.446  0.3511  0.0959  0.0940
    1DPPC   C3B18275  14.653  28.896   4.586  0.0021 -0.0056  0.2144
    1DPPC   C4B18276  14.815  28.478   4.520 -0.1590 -0.0354 -0.0932
    1DPPC   NC318277   9.407  26.977   2.289  0.0670 -0.0828 -0.0540
    1DPPC   PO418278   9.725  26.727   2.480  0.3658  0.0736 -0.0614
    1DPPC   GL118279   9.756  26.627   2.911 -0.0639 -0.0572  0.3150
    1DPPC   GL218280  10.080  26.735   3.066  0.4001  0.2701 -0.1753
    1DPPC   C1A18281   9.790  26.344   3.322 -0.0246 -0.1460 -0.2832
    1DPPC   C2A18282   9.963  26.052   3.642 -0.1174 -0.0422  0.0416
    1DPPC   C3A18283   9.940  25.664   3.876 -0.1349  0.1305  0.0342
    1DPPC   C4A18284   9.878  25.248   3.979 -0.0014 -0.0266 -0.0602
    1DPPC   C1B18285   9.888  26.971   3.373 -0.0324  0.5416  0.1482
    1DPPC   C2B18286  10.083  27.087   3.855 -0.0748 -0.0224 -0.0744
    1DPPC   C3B18287  10.485  26.871   3.908 -0.0555 -0.0303  0.0982
    1DPPC   C4B18288  10.908  26.704   3.822 -0.0168 -0.2408 -0.0135
    1DPPC   NC318289  17.409   6.517   3.848  0.1522  0.1446  0.0987
    1DPPC   PO418290  17.809   6.472   3.599  0.0800 -0.0046 -0.2231
    1DPPC   GL118291  17.932   6.708   4.000  0.2567 -0.2171  0.1658
    1DPPC   GL218292  17.927   7.084   4.127 -0.2167  0.0478  0.1015
    1DPPC   C1A18293  17.892   6.578   4.553  0.0289 -0.0713 -0.2988
    1DPPC   C2A18294  17.796   6.585   4.996 -0.0152 -0.1236  0.1992
    1DPPC   C3A18295  17.530   6.598   5.277 -0.0302  0.0418 -0.2938
    1DPPC   C4A18296  17.275   6.544   5.594  0.0090  0.0474 -0.3553
    1DPPC   C1B18297  18.028   7.368   4.414  0.1243  0.1647  0.0050
    1DPPC   C2B18298  18.271   7.383   4.728  0.2311  0.0363 -0.2590
    1DPPC   C3B18299  18.307   7.633   5.002 -0.3128  0.1156 -0.1283
    1DPPC   C4B18300  18.380   7.543   5.472 -0.1192 -0.1203 -0.0023
    1DPPC   NC318301   4.552  13.603   2.126  0.2524  0.1187 -0.0514
    1DPPC   PO418302   4.503  13.175   2.281 -0.1358 -0.0537 -0.4246
    1DPPC   GL118303   4.439  13.313   2.796  0.0251 -0.0718 -0.0384
    1DPPC   GL218304   4.616  13.512   2.807 -0.0599 -0.2023 -0.2909
    1DPPC   C1A18305   4.308  13.247   3.223  0.0033 -0.2516 -0.0577
    1DPPC   C2A18306   4.286  13.417   3.577 -0.2024  0.3561  0.3136
    1DPPC   C3A18307   4.354  13.855   3.610  0.0400 -0.0022  0.1659
    1DPPC   C4A18308   4.274  13.981   4.022  0.0725 -0.0661 -0.0723
    1DPPC   C1B18309   4.529  13.780   3.183  0.0241 -0.1733  0.2611
    1DPPC   C2B18310   4.650  14.251   3.385  0.1492 -0.1284 -0.1553
    1DPPC   C3B18311   4.902  14.350   3.653 -0.0922 -0.3633  0.0080
    1DPPC   C4B18312   4.843  14.334   4.145  0.1638  0.1068  0.3155
    1DPPC   NC318313  19.775   4.906   4.080 -0.0981 -0.0179 -0.1271
    1DPPC   PO418314  20.185   5.031   4.209 -0.0896  0.0110 -0.1592
    1DPPC   GL118315  20.027   4.932   4.582  0.0685  0.1473 -0.2268
    1DPPC   GL218316  19.802   5.193   4.563 -0.3220 -0.0730  0.0282
    1DPPC   C1A18317  19.900   4.574   4.810 -0.1410 -0.1314 -0.1040
    1DPPC   C2A18318  19.627   4.343   4.996  0.0697 -0.2572 -0.1762
    1DPPC   C3A18319  19.551   4.102   5.312  0.1058 -0.0789 -0.0046
    1DPPC   C4A18320  19.325   4.049   5.761  0.3789 -0.0511 -0.0201
    1DPPC   C1B18321  19.886   5.238   4.961 -0.0865  0.0497 -0.1891
    1DPPC   C2B18322  19.791   5.491   5.388 -0.0717  0.0031  0.0920
    1DPPC   C3B18323  19.671   5.483   5.790  0.0158 -0.2717 -0.2543
    1DPPC   C4B18324  19.302   5.501   5.944 -0.1100  0.1140  0.0548
    1DPPC   NC318325   8.748  17.952   2.603 -0.4766 -0.1637  0.3642
    1DPPC   PO418326   9.164  18.211   2.645  0.2009  0.0829 -0.2728
    1DPPC   GL118327   8.877  17.970   3.085  0.0324  0.0044  0.4231
    1DPPC   GL218328   8.787  18.313   3.061  0.1209  0.1910 -0.5057
    1DPPC   C1A18329   8.656  17.945   3.473  0.1038  0.1502  0.0008
    1DPPC   C2A18330   8.794  17.941   3.970  0.1418 -0.0225 -0.0875
    1DPPC   C3A18331   8.827  17.504   4.209 -0.0143 -0.1907 -0.0994
    1DPPC   C4A18332   8.674  17.131   4.251  0.0184  0.2303 -0.2679
    1DPPC   C1B18333   9.048  18.291   3.432  0.0333 -0.1860  0.1486
    1DPPC   C2B18334   9.273  18.480   3.767 -0.1005 -0.1335  0.0392
    1DPPC   C3B18335   9.375  18.817   3.988 -0.5654 -0.1006  0.1568
    1DPPC   C4B18336   9.596  19.029   4.345 -0.1011 -0.1092 -0.3208
    1DPPC   NC318337  15.601  13.347   2.549  0.3263  0.0370 -0.1741
    1DPPC   PO418338  15.222  13.301   2.382  0.4071 -0.0641 -0.0736
    1DPPC   GL118339  15.259  13.180   2.918  0.0617  0.1628  0.0623
    1DPPC   GL218340  15.369  12.874   2.988 -0.0829 -0.1864 -0.0212
    1DPPC   C1A18341  15.391  13.244   3.358 -0.1576  0.0569  0.0455
    1DPPC   C2A18342  15.428  13.167   3.791  0.2377 -0.2323  0.0449
    1DPPC   C3A18343  15.484  13.397   4.108 -0.1818 -0.0981 -0.2029
    1DPPC   C4A18344  15.558  13.514   4.586  0.1801  0.0778 -0.1046
    1DPPC   C1B18345  15.178  12.807   3.417  0.0647  0.2811 -0.0880
    1DPPC   C2B18346  15.144  12.626   3.850 -0.2665 -0.3176 -0.0648
    1DPPC   C3B18347  15.063  12.416   4.146 -0.0347 -0.0095 -0.0248
    1DPPC   C4B18348  14.849  12.090   4.287  0.0328  0.0394 -0.1217
    1DPPC   NC318349  14.521  14.058   2.167 -0.0893 -0.2971 -0.2116
    1DPPC   PO418350  14.762  14.040   2.472 -0.2441 -0.1787  0.0369
    1DPPC   GL118351  14.893  14.246   2.761 -0.2407  0.0294  0.0076
    1DPPC   GL218352  14.741  14.471   2.914  0.0091 -0.0503 -0.0309
    1DPPC   C1A18353  15.058  14.106   3.152  0.5042  0.0542  0.0541
    1DPPC   C2A18354  15.269  14.066   3.582  0.0532  0.2057 -0.1026
    1DPPC   C3A18355  15.169  14.277   3.999 -0.0525 -0.0383  0.1459
    1DPPC   C4A18356  14.968  14.189   4.427 -0.2964  0.0789  0.0309
    1DPPC   C1B18357  14.877  14.524   3.255 -0.2117  0.0775  0.0866
    1DPPC   C2B18358  14.892  14.447   3.675  0.0495 -0.1754 -0.0509
    1DPPC   C3B18359  14.860  14.620   4.154 -0.0829  0.0723  0.0323
    1DPPC   C4B18360  14.836  14.686   4.556 -0.0055  0.0786  0.2435
    1DPPC   NC318361  19.920   1.560   3.235 -0.1203 -0.0466  0.1162
    1DPPC   PO418362  19.732   1.289   3.608 -0.0444  0.2163 -0.2891
    1DPPC   GL118363  19.998   1.262   4.021  0.0404  0.1352  0.2329
    1DPPC   GL218364  20.326   1.199   4.005  0.1574 -0.2792 -0.0638
    1DPPC   C1A18365  20.123   1.343   4.506  0.3527  0.2206  0.0144
    1DPPC   C2A18366  20.346   1.425   4.831 -0.1059  0.0000  0.2891
    1DPPC   C3A18367  20.192   1.359   5.224 -0.1795  0.2110  0.1841
    1DPPC   C4A18368  20.412   1.345   5.656 -0.0950  0.3173 -0.0318
    1DPPC   C1B18369  20.308   0.953   4.308  0.0342 -0.1978 -0.2440
    1DPPC   C2B18370  20.066   0.792   4.610 -0.1003 -0.0036 -0.1687
    1DPPC   C3B18371  20.192   0.474   4.954  0.1395  0.1369 -0.1053
    1DPPC   C4B18372  20.222   0.438   5.345  0.0127  0.2485 -0.3143
    1DPPC   NC318373  17.969   7.136   3.199 -0.1287  0.3190 -0.0759
    1DPPC   PO418374  17.700   7.383   3.495 -0.0016  0.1009  0.0755
    1DPPC   GL118375  17.460   7.355   3.856  0.0774 -0.1336  0.2020
    1DPPC   GL218376  17.172   7.463   4.005 -0.0432 -0.1168 -0.2572
    1DPPC   C1A18377  17.570   7.451   4.293  0.0095 -0.1726  0.0256
    1DPPC   C2A18378  17.632   7.540   4.734  0.2519 -0.0749  0.0222
    1DPPC   C3A18379  17.822   7.587   5.057  0.0799 -0.2701 -0.1249
    1DPPC   C4A18380  17.933   7.866   5.441 -0.2136  0.1990 -0.1111
    1DPPC   C1B18381  17.053   7.252   4.388 -0.0258 -0.2736 -0.0692
    1DPPC   C2B18382  16.920   7.274   4.795  0.1274 -0.3897 -0.0920
    1DPPC   C3B18383  16.977   7.254   5.307 -0.1629  0.0125  0.2079
    1DPPC   C4B18384  17.032   7.447   5.684 -0.1476 -0.1410  0.2055
    1DPPC   NC318385  18.241   9.714   3.083  0.0288  0.1247 -0.0096
    1DPPC   PO418386  18.053   9.384   2.893 -0.0325 -0.1245  0.0349
    1DPPC   GL118387  17.858   9.468   3.345 -0.1383  0.0562 -0.0712
    1DPPC   GL218388  17.788   9.790   3.433  0.0508 -0.3273  0.0552
    1DPPC   C1A18389  17.731   9.172   3.678 -0.3081  0.0859 -0.2407
    1DPPC   C2A18390  17.778   9.309   4.085  0.2239  0.0892 -0.0637
    1DPPC   C3A18391  17.903   9.428   4.504 -0.1714 -0.0596 -0.2185
    1DPPC   C4A18392  18.219   9.423   4.773  0.4175  0.1174 -0.3085
    1DPPC   C1B18393  18.073   9.649   3.873  0.0248  0.1455 -0.1874
    1DPPC   C2B18394  18.185   9.821   4.252 -0.0958 -0.0892  0.1562
    1DPPC   C3B18395  18.117   9.941   4.671  0.0509  0.2282 -0.0954
    1DPPC   C4B18396  18.121  10.248   5.046 -0.1337  0.0819  0.0860
    1DPPC   NC318397  20.387  13.890   2.331 -0.1991  0.1690  0.0789
    1DPPC   PO418398  20.712  13.714   2.502 -0.1450  0.0090  0.2102
    1DPPC   GL118399  20.939  14.027   2.670  0.4500  0.0953 -0.2173
    1DPPC   GL218400  20.698  14.154   2.827 -0.1800 -0.0303  0.2116
    1DPPC   C1A18401  21.136  14.180   3.140  0.4121  0.0163  0.1291
    1DPPC   C2A18402  21.196  14.331   3.562 -0.4642 -0.1901  0.0064
    1DPPC   C3A18403  21.282  14.378   3.944 -0.0375  0.2310 -0.3762
    1DPPC   C4A18404  21.271  14.328   4.302  0.1064  0.0276  0.0146
    1DPPC   C1B18405  20.652  14.146   3.303  0.0477  0.5564  0.3394
    1DPPC   C2B18406  20.730  14.274   3.642  0.2221  0.0059 -0.0370
    1DPPC   C3B18407  20.631  14.478   4.128  0.1893 -0.2992 -0.0010
    1DPPC   C4B18408  20.330  14.476   4.508 -0.2602  0.1592 -0.0391
    1DPPC   NC318409  19.538   8.171   3.329  0.2172  0.1420  0.1378
    1DPPC   PO418410  19.720   8.500   3.226  0.1818  0.1151  0.0724
    1DPPC   GL118411  19.759   8.540   3.641 -0.1475 -0.0106 -0.2120
    1DPPC   GL218412  19.830   8.158   3.768 -0.0484  0.1974 -0.3205
    1DPPC   C1A18413  19.764   8.858   4.004 -0.1415 -0.0811  0.2005
    1DPPC   C2A18414  19.668   8.808   4.401  0.0540 -0.1886 -0.1188
    1DPPC   C3A18415  19.383   8.845   4.780  0.1091  0.1865  0.1515
    1DPPC   C4A18416  18.954   8.940   5.029  0.0038 -0.0983  0.2060
    1DPPC   C1B18417  19.742   8.308   4.222 -0.0170  0.2350  0.0997
    1DPPC   C2B18418  19.706   8.381   4.670  0.1840 -0.0711 -0.0671
    1DPPC   C3B18419  19.558   8.304   5.017 -0.1748  0.0442  0.0061
    1DPPC   C4B18420  19.349   8.628   5.267 -0.1036  0.0399 -0.0186
    1DPPC   NC318421   4.883  24.504   2.053 -0.0928  0.1239  0.0387
    1DPPC   PO418422   5.281  24.657   2.221 -0.1308  0.2058  0.2373
    1DPPC   GL118423   5.380  24.378   2.679 -0.2858 -0.0249  0.0953
    1DPPC   GL218424   5.647  24.364   2.995  0.0582  0.0936  0.1927
    1DPPC   C1A18425   5.066  24.410   3.112 -0.2206  0.0560  0.1177
    1DPPC   C2A18426   5.157  24.322   3.478 -0.4684 -0.0964 -0.1237
    1DPPC   C3A18427   5.065  24.424   3.949 -0.3865  0.1163 -0.1023
    1DPPC   C4A18428   4.649  24.453   4.131 -0.3004  0.0683  0.2403
    1DPPC   C1B18429   5.666  24.202   3.411  0.2763 -0.3435  0.3309
    1DPPC   C2B18430   5.512  24.157   3.817 -0.4357  0.1785 -0.2271
    1DPPC   C3B18431   5.341  24.062   4.111 -0.1439  0.4187  0.0222
    1DPPC   C4B18432   5.282  23.740   4.345  0.0280 -0.2492  0.3822
    1DPPC   NC318433  10.533   5.214   3.603 -0.0270  0.0930 -0.0281
    1DPPC   PO418434  10.921   5.192   3.820  0.0271 -0.0723 -0.2674
    1DPPC   GL118435  10.701   5.269   4.108  0.2125 -0.0223 -0.0476
    1DPPC   GL218436  10.730   5.096   4.402  0.1731  0.0359 -0.0696
    1DPPC   C1A18437  10.259   5.320   4.351 -0.0844 -0.1309 -0.3684
    1DPPC   C2A18438  10.065   5.682   4.522  0.1258 -0.2300 -0.1548
    1DPPC   C3A18439   9.975   5.945   4.770 -0.1242  0.1030 -0.0883
    1DPPC   C4A18440  10.082   6.303   4.947  0.2338  0.0877 -0.0006
    1DPPC   C1B18441  10.873   5.460   4.607 -0.3216 -0.3702  0.3585
    1DPPC   C2B18442  10.916   5.713   4.972 -0.1229 -0.0466 -0.0483
    1DPPC   C3B18443  10.880   5.945   5.443 -0.2585  0.1885  0.1303
    1DPPC   C4B18444  10.626   6.086   5.725 -0.4032 -0.0543 -0.3286
    1DPPC   NC318445   2.831  19.678   2.903  0.0412  0.0543  0.0463
    1DPPC   PO418446   3.161  19.650   2.934  0.3220 -0.0122 -0.0777
    1DPPC   GL118447   3.238  19.899   3.339  0.0620 -0.0858  0.2097
    1DPPC   GL218448   3.188  20.240   3.301  0.1751  0.2309 -0.1505
    1DPPC   C1A18449   3.025  19.949   3.732  0.0919 -0.2560 -0.1604
    1DPPC   C2A18450   2.945  20.320   3.906  0.1895 -0.2788  0.2537
    1DPPC   C3A18451   3.088  20.418   4.355  0.1069  0.2485  0.0474
    1DPPC   C4A18452   3.358  20.125   4.667  0.1111 -0.0298 -0.0222
    1DPPC   C1B18453   3.064  20.615   3.519 -0.1308 -0.0855 -0.1509
    1DPPC   C2B18454   2.694  20.895   3.728  0.2419  0.1699 -0.1313
    1DPPC   C3B18455   2.373  21.047   4.112  0.0705  0.2810  0.2495
    1DPPC   C4B18456   2.037  21.200   4.435 -0.0939 -0.0272  0.0564
    1DPPC   NC318457  25.407  15.473   2.460  0.0306  0.2581  0.2918
    1DPPC   PO418458  25.096  15.225   2.581 -0.1016 -0.2991  0.1695
    1DPPC   GL118459  25.050  15.096   3.038 -0.1222  0.1345  0.2197
    1DPPC   GL218460  25.337  15.148   3.208 -0.1295 -0.2225  0.0500
    1DPPC   C1A18461  24.836  14.918   3.401 -0.1859  0.2747 -0.0043
    1DPPC   C2A18462  24.713  14.929   3.834 -0.1475 -0.0530  0.0580
    1DPPC   C3A18463  24.704  14.954   4.212  0.2924 -0.1757  0.2884
    1DPPC   C4A18464  24.854  14.787   4.511  0.3171  0.0379 -0.0074
    1DPPC   C1B18465  25.135  15.267   3.681 -0.3965  0.0543  0.0738
    1DPPC   C2B18466  25.109  15.279   4.140  0.1477  0.2554 -0.1330
    1DPPC   C3B18467  25.249  15.246   4.602 -0.1311  0.1404  0.1113
    1DPPC   C4B18468  25.534  14.969   4.835  0.0156 -0.0638 -0.2883
    1DPPC   NC318469  16.098   7.398   3.226  0.0272  0.0649  0.0556
    1DPPC   PO418470  16.275   7.340   3.647  0.0100  0.3695 -0.2770
    1DPPC   GL118471  16.124   7.404   4.045 -0.0379 -0.0353  0.1776
    1DPPC   GL218472  16.128   7.690   4.073 -0.1377  0.0415  0.2575
    1DPPC   C1A18473  16.157   7.277   4.528 -0.2451  0.1800 -0.0456
    1DPPC   C2A18474  16.114   7.401   4.933 -0.0096  0.0445  0.1100
    1DPPC   C3A18475  16.017   7.441   5.264 -0.0117 -0.5264 -0.0500
    1DPPC   C4A18476  16.183   7.478   5.722 -0.1358  0.1844  0.2459
    1DPPC   C1B18477  16.139   7.785   4.444 -0.0479  0.1654  0.2103
    1DPPC   C2B18478  16.112   7.981   4.950 -0.0469 -0.0610 -0.0728
    1DPPC   C3B18479  16.273   7.842   5.400 -0.3138  0.0169  0.0238
    1DPPC   C4B18480  16.589   7.740   5.662  0.1637  0.0988  0.0087
    1DPPC   NC318481  21.918   7.226   3.655 -0.0339 -0.2522  0.0469
    1DPPC   PO418482  22.102   6.843   3.790  0.0832  0.1426 -0.1678
    1DPPC   GL118483  22.072   6.928   4.222 -0.0260 -0.1589  0.2800
    1DPPC   GL218484  22.425   6.646   4.383  0.1728 -0.0808 -0.5869
    1DPPC   C1A18485  22.026   6.954   4.707 -0.1376 -0.0924  0.1698
    1DPPC   C2A18486  22.036   7.004   5.086 -0.3822  0.0272  0.1652
    1DPPC   C3A18487  22.311   7.046   5.445  0.0887 -0.0195  0.4083
    1DPPC   C4A18488  22.486   7.051   5.877 -0.0646  0.3457  0.0024
    1DPPC   C1B18489  22.583   6.977   4.603  0.1310 -0.0420  0.1149
    1DPPC   C2B18490  22.544   7.185   4.962  0.0457  0.0237  0.0477
    1DPPC   C3B18491  22.856   7.595   5.066  0.3031 -0.0267  0.0303
    1DPPC   C4B18492  23.210   7.882   5.269 -0.0963 -0.0600  0.1992
    1DPPC   NC318493  24.596   8.138   3.177  0.0020 -0.1844 -0.0979
    1DPPC   PO418494  24.130   8.071   3.495 -0.1273  0.0653 -0.2228
    1DPPC   GL118495  24.156   8.127   3.929  0.2388  0.3411  0.0896
    1DPPC   GL218496  23.934   7.840   3.972  0.3066  0.0324  0.3818
    1DPPC   C1A18497  24.172   8.066   4.369 -0.4341  0.0151 -0.0116
    1DPPC   C2A18498  24.162   7.844   4.716 -0.2729  0.0156 -0.1417
    1DPPC   C3A18499  24.476   7.646   5.057 -0.0785 -0.0835 -0.1336
    1DPPC   C4A18500  24.472   7.520   5.558 -0.0243  0.1204  0.0669
    1DPPC   C1B18501  23.719   7.932   4.364  0.0454  0.0468  0.2331
    1DPPC   C2B18502  23.723   8.035   4.753  0.2424 -0.3564  0.0238
    1DPPC   C3B18503  23.641   8.099   5.098  0.0187 -0.0465  0.1293
    1DPPC   C4B18504  23.531   8.281   5.471  0.1143 -0.1822 -0.1473
    1DPPC   NC318505  17.911   4.458   4.442  0.1310  0.0236 -0.1767
    1DPPC   PO418506  17.631   4.657   4.127  0.0791  0.0252  0.0436
    1DPPC   GL118507  17.438   5.001   4.318 -0.0282  0.0720  0.2809
    1DPPC   GL218508  17.156   5.076   4.269 -0.0887  0.0652  0.2070
    1DPPC   C1A18509  17.349   5.112   4.820  0.2542  0.3619  0.2502
    1DPPC   C2A18510  17.431   5.330   5.174 -0.0239 -0.0255  0.1868
    1DPPC   C3A18511  17.720   5.243   5.436 -0.0988 -0.1763  0.3685
    1DPPC   C4A18512  17.919   4.997   5.693  0.2309  0.2290  0.1569
    1DPPC   C1B18513  16.882   4.859   4.605  0.2648 -0.2017  0.0571
    1DPPC   C2B18514  16.907   4.938   5.043  0.0512 -0.3013 -0.0402
    1DPPC   C3B18515  16.988   5.142   5.460  0.3194 -0.3066  0.0031
    1DPPC   C4B18516  17.222   5.422   5.741  0.2769 -0.0267 -0.1556
    1DPPC   NC318517   2.267  17.788   2.555  0.3516  0.0741 -0.0163
    1DPPC   PO418518   2.232  17.680   2.955  0.0079 -0.0402  0.1227
    1DPPC   GL118519   2.352  17.729   3.400 -0.0667 -0.2006 -0.0502
    1DPPC   GL218520   2.591  18.008   3.460 -0.2279  0.0251 -0.1148
    1DPPC   C1A18521   2.355  17.716   3.831  0.0009  0.0085 -0.2586
    1DPPC   C2A18522   2.418  17.781   4.273  0.2630 -0.2017  0.1707
    1DPPC   C3A18523   2.396  17.644   4.651 -0.0522  0.0954  0.1333
    1DPPC   C4A18524   2.212  17.935   4.985  0.1107  0.0784  0.3287
    1DPPC   C1B18525   2.730  18.075   3.834  0.1276 -0.1243 -0.0258
    1DPPC   C2B18526   2.574  18.221   4.143  0.1649 -0.4543 -0.0277
    1DPPC   C3B18527   2.311  18.323   4.458 -0.4137  0.0679 -0.0382
    1DPPC   C4B18528   2.405  18.388   4.882 -0.3142  0.2206 -0.2466
    1DPPC   NC318529  16.471   8.449   2.994 -0.0499 -0.1990  0.2480
    1DPPC   PO418530  16.346   8.409   3.395 -0.0345  0.2069  0.1056
    1DPPC   GL118531  16.508   8.241   3.793 -0.1021  0.3044 -0.0309
    1DPPC   GL218532  16.747   8.466   3.877  0.0337  0.1712 -0.0939
    1DPPC   C1A18533  16.521   8.002   4.146  0.1160  0.0103 -0.2983
    1DPPC   C2A18534  16.611   8.032   4.600  0.0269  0.0553  0.3318
    1DPPC   C3A18535  16.654   8.325   4.936  0.2112 -0.1300 -0.1458
    1DPPC   C4A18536  16.635   8.237   5.384 -0.0823 -0.3061 -0.1788
    1DPPC   C1B18537  16.687   8.451   4.252 -0.2409 -0.0891  0.1213
    1DPPC   C2B18538  16.740   8.644   4.592  0.0023 -0.3395 -0.1927
    1DPPC   C3B18539  16.917   8.820   5.016 -0.0591 -0.0726 -0.1633
    1DPPC   C4B18540  16.951   8.693   5.460  0.4351 -0.1418  0.0413
    1DPPC   NC318541  15.892   5.274   3.823 -0.1510 -0.1201  0.1984
    1DPPC   PO418542  15.614   4.917   3.883 -0.3206  0.6023 -0.0204
    1DPPC   GL118543  15.548   4.765   4.265 -0.0864  0.0314 -0.2630
    1DPPC   GL218544  15.417   4.356   4.434  0.0603 -0.4482 -0.1547
    1DPPC   C1A18545  15.520   4.781   4.747  0.0862 -0.2546 -0.0126
    1DPPC   C2A18546  15.653   4.709   5.124 -0.2441  0.2315 -0.3430
    1DPPC   C3A18547  15.680   4.890   5.496 -0.1438  0.0603  0.0608
    1DPPC   C4A18548  16.025   5.015   5.755 -0.4014 -0.0319  0.0899
    1DPPC   C1B18549  15.626   4.295   4.818  0.1235  0.1382 -0.0651
    1DPPC   C2B18550  15.765   4.198   5.245 -0.3674 -0.1581  0.0888
    1DPPC   C3B18551  15.718   4.388   5.601  0.1781 -0.2631 -0.1267
    1DPPC   C4B18552  15.758   4.629   5.939 -0.2064 -0.1047 -0.0529
    1DPPC   NC318553  24.501   9.868   2.943  0.0326  0.2735  0.1911
    1DPPC   PO418554  24.840  10.281   2.773  0.0782  0.1957  0.2701
    1DPPC   GL118555  24.875  10.223   3.251  0.2916 -0.2823  0.2736
    1DPPC   GL218556  24.799   9.926   3.355  0.0210  0.1248 -0.1821
    1DPPC   C1A18557  25.173  10.425   3.596 -0.0537 -0.0082  0.0467
    1DPPC   C2A18558  25.351  10.557   3.884  0.4153 -0.1358  0.0867
    1DPPC   C3A18559  25.599  10.687   4.235  0.2973 -0.0801 -0.1355
    1DPPC   C4A18560  25.480  10.748   4.704 -0.0558  0.0423  0.1531
    1DPPC   C1B18561  24.531   9.931   3.697  0.0481 -0.1933 -0.0018
    1DPPC   C2B18562  24.434   9.649   3.996  0.1340 -0.1982  0.1068
    1DPPC   C3B18563  24.250   9.639   4.285 -0.4332 -0.1089  0.0437
    1DPPC   C4B18564  24.049   9.517   4.654  0.0185 -0.2240  0.3609
    1DPPC   NC318565  15.321   6.514   3.889 -0.2087 -0.1758 -0.0916
    1DPPC   PO418566  15.200   6.107   3.896 -0.0110 -0.3010  0.2005
    1DPPC   GL118567  15.046   6.209   4.285  0.1430 -0.1849  0.3160
    1DPPC   GL218568  14.905   6.337   4.541  0.0759  0.0147 -0.1236
    1DPPC   C1A18569  15.307   6.163   4.645 -0.0163  0.0212  0.0374
    1DPPC   C2A18570  15.256   6.292   5.036 -0.1722  0.0951  0.2266
    1DPPC   C3A18571  15.051   6.332   5.361 -0.0089  0.3008 -0.0860
    1DPPC   C4A18572  14.864   6.505   5.771 -0.0493 -0.2280 -0.1309
    1DPPC   C1B18573  14.773   6.296   4.933  0.2970  0.3897 -0.0506
    1DPPC   C2B18574  14.516   6.476   5.322  0.2207  0.0421  0.1239
    1DPPC   C3B18575  14.334   6.707   5.650 -0.0048 -0.2170 -0.2457
    1DPPC   C4B18576  14.466   6.982   5.953 -0.4003 -0.3288  0.0379
    1DPPC   NC318577  20.814  11.255   2.858 -0.2035 -0.1095 -0.2132
    1DPPC   PO418578  21.153  11.537   2.904  0.1654  0.0476 -0.0198
    1DPPC   GL118579  21.518  11.612   3.137 -0.0462  0.2615 -0.1273
    1DPPC   GL218580  21.779  11.633   3.133  0.1230 -0.0133 -0.1828
    1DPPC   C1A18581  21.599  11.727   3.567 -0.0535 -0.1874 -0.3042
    1DPPC   C2A18582  21.682  11.876   3.965  0.1718 -0.0650  0.0151
    1DPPC   C3A18583  21.745  11.851   4.326  0.0367 -0.1442  0.1822
    1DPPC   C4A18584  21.800  11.641   4.671  0.0155 -0.0889 -0.0576
    1DPPC   C1B18585  22.059  11.749   3.543  0.3007 -0.1605  0.0390
    1DPPC   C2B18586  22.155  11.790   3.980  0.1990 -0.0447 -0.1007
    1DPPC   C3B18587  22.319  11.665   4.349  0.0529  0.3513 -0.3105
    1DPPC   C4B18588  22.667  11.581   4.701  0.2874  0.0219 -0.1839
    1DPPC   NC318589  17.793  29.845   3.475  0.3386  0.1150 -0.1358
    1DPPC   PO418590  17.375  29.841   3.612 -0.1064  0.1597  0.0962
    1DPPC   GL118591  17.243  29.541   3.985  0.3010  0.0019 -0.1430
    1DPPC   GL218592  16.980  29.785   4.028 -0.4332 -0.0488 -0.3049
    1DPPC   C1A18593  17.451  29.415   4.397  0.0912  0.0563  0.0916
    1DPPC   C2A18594  17.833  29.474   4.525 -0.3984  0.0317  0.1952
    1DPPC   C3A18595  18.069  29.455   4.905  0.1466 -0.0041 -0.2214
    1DPPC   C4A18596  18.314  29.392   5.388  0.1456 -0.0198  0.1445
    1DPPC   C1B18597  17.073  29.734   4.477  0.0835  0.2471  0.0641
    1DPPC   C2B18598  16.959  29.641   4.903  0.0803  0.4792 -0.1093
    1DPPC   C3B18599  16.981  29.453   5.258  0.1062 -0.2690  0.2027
    1DPPC   C4B18600  17.233  29.318   5.685  0.1068 -0.1622 -0.1416
    1DPPC   NC318601  22.262  18.658   1.712  0.0254  0.2063  0.0990
    1DPPC   PO418602  22.194  19.047   1.908 -0.1619 -0.3352  0.1929
    1DPPC   GL118603  22.121  19.171   2.320 -0.0971 -0.0701  0.0411
    1DPPC   GL218604  21.993  18.865   2.338  0.1553  0.0319 -0.0603
    1DPPC   C1A18605  22.034  19.284   2.764  0.0157  0.0149 -0.3399
    1DPPC   C2A18606  21.971  19.435   3.198  0.1316  0.0189  0.1102
    1DPPC   C3A18607  21.767  19.393   3.639 -0.0412  0.0344  0.0797
    1DPPC   C4A18608  21.922  19.354   4.138 -0.1747  0.0316 -0.0283
    1DPPC   C1B18609  21.893  18.756   2.776 -0.2427 -0.1234 -0.3322
    1DPPC   C2B18610  21.913  18.526   3.183 -0.0838 -0.0663 -0.0328
    1DPPC   C3B18611  22.120  18.193   3.534  0.2034 -0.0752  0.4730
    1DPPC   C4B18612  22.239  17.842   3.774  0.1988  0.0768 -0.0748
    1DPPC   NC318613  16.110  13.597   2.138  0.0631  0.1268 -0.1596
    1DPPC   PO418614  16.172  13.290   2.485 -0.1487 -0.0497  0.1237
    1DPPC   GL118615  16.358  13.380   2.825 -0.0868 -0.3078  0.0573
    1DPPC   GL218616  16.510  13.621   2.901 -0.1568  0.0140  0.0259
    1DPPC   C1A18617  16.387  13.330   3.278  0.0267 -0.0511  0.0706
    1DPPC   C2A18618  16.279  13.600   3.678  0.0231 -0.0709  0.1980
    1DPPC   C3A18619  16.247  13.488   3.994 -0.2377  0.0603  0.1264
    1DPPC   C4A18620  15.998  13.472   4.254  0.2234 -0.0370 -0.2204
    1DPPC   C1B18621  16.157  13.730   3.132  0.2212 -0.0775 -0.0449
    1DPPC   C2B18622  15.926  13.885   3.474  0.1393  0.1790 -0.2901
    1DPPC   C3B18623  15.924  13.903   3.967 -0.1187 -0.1596 -0.0778
    1DPPC   C4B18624  15.970  13.969   4.470 -0.1072 -0.2097 -0.0124
    1DPPC   NC318625   6.183  24.001   2.182 -0.2739  0.3446  0.1839
    1DPPC   PO418626   6.492  24.312   2.277  0.1465  0.2234  0.2365
    1DPPC   GL118627   6.518  24.471   2.744 -0.1909 -0.1470  0.1904
    1DPPC   GL218628   6.610  24.673   2.884  0.0130 -0.1777  0.1348
    1DPPC   C1A18629   6.577  24.294   3.271 -0.0465 -0.2064  0.1350
    1DPPC   C2A18630   6.447  24.195   3.683 -0.0841  0.0559  0.1705
    1DPPC   C3A18631   6.243  23.967   3.970  0.4011  0.0780  0.0476
    1DPPC   C4A18632   6.039  23.619   3.697 -0.2829 -0.1618 -0.2472
    1DPPC   C1B18633   6.511  24.860   3.281  0.1315 -0.0800 -0.1344
    1DPPC   C2B18634   6.543  25.209   3.648 -0.0527 -0.0595  0.2298
    1DPPC   C3B18635   6.808  25.547   3.796  0.1714 -0.3260  0.0177
    1DPPC   C4B18636   7.157  25.762   4.094 -0.0870  0.2355 -0.0551
    1DPPC   NC318637  21.269   5.466   4.048 -0.4450 -0.0829 -0.1643
    1DPPC   PO418638  21.165   5.104   4.247 -0.3575  0.1698 -0.0616
    1DPPC   GL118639  21.048   5.085   4.693  0.0765 -0.0323  0.1129
    1DPPC   GL218640  20.662   5.042   4.863 -0.1441 -0.2143 -0.0735
    1DPPC   C1A18641  20.967   5.367   5.005 -0.0903  0.2524 -0.1546
    1DPPC   C2A18642  20.891   5.662   5.397  0.1153  0.0483 -0.1088
    1DPPC   C3A18643  20.954   5.757   5.762  0.1800  0.2249 -0.0852
    1DPPC   C4A18644  20.863   5.932   6.080 -0.1248 -0.2803  0.2448
    1DPPC   C1B18645  20.737   5.036   5.317 -0.0385  0.1669 -0.1308
    1DPPC   C2B18646  21.034   4.849   5.619 -0.0559 -0.0353 -0.4578
    1DPPC   C3B18647  20.973   4.401   5.789  0.0439 -0.0510  0.0550
    1DPPC   C4B18648  20.744   4.067   5.555 -0.0427  0.0030  0.2233
    1DPPC   NC318649  20.517  14.800   2.260  0.0186 -0.1720 -0.1268
    1DPPC   PO418650  20.163  15.083   2.311 -0.0111  0.0782  0.1194
    1DPPC   GL118651  20.315  15.144   2.663  0.0596 -0.0910 -0.1290
    1DPPC   GL218652  20.007  15.280   2.842  0.0804 -0.1477  0.1791
    1DPPC   C1A18653  20.564  15.224   3.016  0.2130  0.0768 -0.1484
    1DPPC   C2A18654  20.766  15.319   3.374 -0.0377  0.1488 -0.2310
    1DPPC   C3A18655  20.710  15.555   3.570 -0.1117 -0.0331 -0.4560
    1DPPC   C4A18656  20.747  15.643   3.969  0.1217 -0.2851  0.1066
    1DPPC   C1B18657  19.932  15.014   3.119 -0.1677  0.1274 -0.0838
    1DPPC   C2B18658  19.612  14.764   3.351  0.2224 -0.1860 -0.0624
    1DPPC   C3B18659  19.401  14.490   3.611 -0.1682  0.0225  0.1019
    1DPPC   C4B18660  19.251  14.496   3.963 -0.1406 -0.1686 -0.3316
    1DPPC   NC318661  29.819   5.803   2.455 -0.2475 -0.0231 -0.1333
    1DPPC   PO418662   0.300   5.897   2.721  0.0198 -0.1223 -0.1542
    1DPPC   GL118663   0.571   5.909   3.093  0.0715 -0.2778 -0.0728
    1DPPC   GL218664   0.802   5.766   3.248 -0.2205 -0.0479 -0.0502
    1DPPC   C1A18665   0.468   5.842   3.649 -0.0833 -0.0187  0.2890
    1DPPC   C2A18666   0.195   5.559   4.050 -0.2534  0.2844 -0.1205
    1DPPC   C3A18667   0.315   5.573   4.471  0.4494 -0.2892  0.0476
    1DPPC   C4A18668   0.545   5.469   4.810 -0.4481  0.0224 -0.1306
    1DPPC   C1B18669   0.974   5.699   3.673  0.1984 -0.0782 -0.0232
    1DPPC   C2B18670   0.697   5.782   4.068  0.1721  0.1093  0.1131
    1DPPC   C3B18671   0.431   6.021   4.146 -0.1456 -0.2542  0.1454
    1DPPC   C4B18672   0.019   5.989   4.312  0.0754  0.2752 -0.2342
    1DPPC   NC318673  17.336  10.580   2.428 -0.2029  0.1432  0.1538
    1DPPC   PO418674  17.059  10.756   2.742  0.0384  0.2337 -0.0840
    1DPPC   GL118675  16.837  10.838   3.141  0.1401 -0.1394  0.0109
    1DPPC   GL218676  17.015  10.557   3.227 -0.0806 -0.0083  0.1298
    1DPPC   C1A18677  16.715  11.067   3.499 -0.1440 -0.1337 -0.0228
    1DPPC   C2A18678  16.782  11.120   3.944  0.1394  0.2762 -0.3213
    1DPPC   C3A18679  16.718  11.222   4.387  0.0848 -0.0167 -0.0858
    1DPPC   C4A18680  16.434  11.300   4.809  0.3061 -0.3840 -0.0315
    1DPPC   C1B18681  16.980  10.561   3.585  0.2356 -0.1241  0.0034
    1DPPC   C2B18682  17.125  10.722   3.925 -0.1330 -0.0443  0.0354
    1DPPC   C3B18683  16.986  10.776   4.403 -0.0914  0.3429 -0.0358
    1DPPC   C4B18684  16.943  11.052   4.798 -0.1925 -0.1132  0.1597
    1DPPC   NC318685  21.046   6.913   3.618 -0.0341  0.0599  0.2039
    1DPPC   PO418686  21.455   7.092   3.687  0.0586 -0.1242  0.2490
    1DPPC   GL118687  21.640   7.157   4.062 -0.1038  0.3350  0.0299
    1DPPC   GL218688  21.753   7.417   4.107 -0.0668 -0.0738 -0.2141
    1DPPC   C1A18689  21.630   7.044   4.452  0.1315 -0.1632 -0.0165
    1DPPC   C2A18690  21.564   6.872   4.948 -0.0902  0.4022 -0.2201
    1DPPC   C3A18691  21.691   6.875   5.410 -0.2070 -0.0954 -0.0935
    1DPPC   C4A18692  21.514   6.886   5.849 -0.1409  0.1186  0.0625
    1DPPC   C1B18693  21.827   7.507   4.471  0.1383  0.1106  0.0959
    1DPPC   C2B18694  21.732   7.349   4.816 -0.0296  0.1899  0.0586
    1DPPC   C3B18695  21.645   7.349   5.237 -0.1086 -0.0831 -0.0709
    1DPPC   C4B18696  21.862   7.303   5.668 -0.0438 -0.0098  0.1045
    1DPPC   NC318697  19.975  19.599   1.633 -0.3261  0.0047  0.1376
    1DPPC   PO418698  19.588  19.640   1.943  0.0538  0.2227  0.3312
    1DPPC   GL118699  19.357  19.866   2.255  0.0970 -0.0305  0.2260
    1DPPC   GL218700  19.045  19.726   2.435  0.1077 -0.3571  0.1595
    1DPPC   C1A18701  19.477  19.920   2.699  0.1760  0.3966  0.1202
    1DPPC   C2A18702  19.498  19.643   3.043  0.4071 -0.1437 -0.0582
    1DPPC   C3A18703  19.523  19.392   3.418 -0.1653 -0.1255 -0.0304
    1DPPC   C4A18704  19.372  19.003   3.560 -0.1222 -0.0509 -0.3161
    1DPPC   C1B18705  19.065  19.417   2.738  0.3936  0.1231  0.2579
    1DPPC   C2B18706  19.241  19.138   2.841 -0.1563  0.2528 -0.3720
    1DPPC   C3B18707  19.520  19.029   3.017  0.2548 -0.0010  0.3717
    1DPPC   C4B18708  19.944  19.220   3.201 -0.0681 -0.1818 -0.0263
    1DPPC   NC318709  24.650  16.050   2.085 -0.0167 -0.1048 -0.3034
    1DPPC   PO418710  24.654  15.943   2.534 -0.3113 -0.0511 -0.1721
    1DPPC   GL118711  24.437  16.200   2.896 -0.0293  0.0201  0.2103
    1DPPC   GL218712  24.096  16.338   2.826  0.0936  0.0713 -0.1846
    1DPPC   C1A18713  24.405  16.278   3.307 -0.3615  0.2424  0.0635
    1DPPC   C2A18714  24.521  16.066   3.735 -0.2037  0.0028 -0.0240
    1DPPC   C3A18715  24.552  15.884   4.158 -0.0430  0.1512 -0.1631
    1DPPC   C4A18716  24.637  15.490   4.313 -0.2115 -0.0293 -0.1223
    1DPPC   C1B18717  23.959  16.112   3.155 -0.0687 -0.0010  0.1998
    1DPPC   C2B18718  23.896  16.171   3.608  0.0390 -0.1378 -0.1196
    1DPPC   C3B18719  24.107  16.304   3.956  0.2556 -0.0917  0.0150
    1DPPC   C4B18720  24.445  16.392   4.255 -0.1970 -0.2478  0.0553
    1DPPC   NC318721  15.935   8.531   3.152  0.1066  0.0751  0.0276
    1DPPC   PO418722  16.032   8.964   3.140  0.1892  0.1071  0.0659
    1DPPC   GL118723  16.164   9.174   3.477  0.1046 -0.0877 -0.0524
    1DPPC   GL218724  15.878   9.407   3.473 -0.0527 -0.1013 -0.1397
    1DPPC   C1A18725  16.120   9.309   3.950 -0.1326  0.1932  0.2828
    1DPPC   C2A18726  15.904   9.475   4.337 -0.3903 -0.0570 -0.2796
    1DPPC   C3A18727  15.990   9.801   4.705 -0.3220 -0.2417 -0.1521
    1DPPC   C4A18728  16.215  10.192   4.798  0.1002  0.1838  0.0129
    1DPPC   C1B18729  15.835   9.633   3.805  0.0267 -0.0753 -0.3345
    1DPPC   C2B18730  15.509   9.719   4.083  0.0367  0.1311 -0.0651
    1DPPC   C3B18731  15.531   9.750   4.561  0.2247 -0.3888  0.1506
    1DPPC   C4B18732  15.611   9.552   4.915  0.1510 -0.0633 -0.1374
    1DPPC   NC318733  24.694  14.123   2.786 -0.2862 -0.0230 -0.0389
    1DPPC   PO418734  24.585  14.481   2.960 -0.0493  0.1586 -0.2620
    1DPPC   GL118735  24.188  14.471   3.146 -0.1672 -0.0665 -0.1007
    1DPPC   GL218736  24.215  14.281   3.383 -0.0325  0.0734 -0.1941
    1DPPC   C1A18737  23.860  14.660   3.343  0.2835 -0.0199  0.0583
    1DPPC   C2A18738  23.444  14.736   3.618  0.0750  0.3596 -0.0031
    1DPPC   C3A18739  23.429  14.748   4.115 -0.0902  0.0399  0.0551
    1DPPC   C4A18740  23.462  14.867   4.546 -0.0096  0.0147  0.1284
    1DPPC   C1B18741  23.752  14.228   3.565 -0.0329  0.0372  0.3994
    1DPPC   C2B18742  23.603  14.127   4.010 -0.2079 -0.0405  0.0782
    1DPPC   C3B18743  23.470  14.110   4.418 -0.1807  0.0245 -0.2220
    1DPPC   C4B18744  23.277  13.839   4.742  0.0091  0.1404  0.0102
    1DPPC   NC318745  24.673  13.178   2.453 -0.5045 -0.0858  0.1340
    1DPPC   PO418746  25.125  13.145   2.536  0.0603  0.2374 -0.4709
    1DPPC   GL118747  24.932  13.168   2.913  0.0780  0.1678 -0.1806
    1DPPC   GL218748  24.665  13.001   3.034  0.1222 -0.1285 -0.0085
    1DPPC   C1A18749  24.946  13.301   3.301 -0.0732  0.1795 -0.2426
    1DPPC   C2A18750  25.038  13.258   3.719  0.0421 -0.0606  0.1140
    1DPPC   C3A18751  25.096  13.341   4.188  0.1301  0.1031  0.3893
    1DPPC   C4A18752  24.884  13.315   4.517 -0.0068  0.3448  0.0421
    1DPPC   C1B18753  24.647  12.965   3.572  0.0653 -0.0117 -0.0971
    1DPPC   C2B18754  24.757  12.948   3.955  0.0211  0.0109  0.0711
    1DPPC   C3B18755  24.908  12.817   4.419 -0.0406  0.3033 -0.1417
    1DPPC   C4B18756  24.825  12.426   4.673  0.3925 -0.2722 -0.0096
    1DPPC   NC318757  14.191   5.870   4.192 -0.0695  0.2853 -0.0514
    1DPPC   PO418758  13.950   6.314   4.070  0.1383  0.1622 -0.0039
    1DPPC   GL118759  13.979   6.152   4.517 -0.0573  0.2108 -0.0966
    1DPPC   GL218760  14.323   6.203   4.567 -0.2124  0.0020  0.1899
    1DPPC   C1A18761  14.123   6.213   5.058 -0.0119  0.2649 -0.1734
    1DPPC   C2A18762  14.094   6.217   5.524 -0.1491  0.2643 -0.0858
    1DPPC   C3A18763  13.825   6.269   5.894  0.0338 -0.0780 -0.0374
    1DPPC   C4A18764  13.577   6.176   6.275 -0.5558 -0.0377 -0.2769
    1DPPC   C1B18765  14.425   6.631   4.802  0.2017  0.2512  0.2110
    1DPPC   C2B18766  14.370   6.942   5.037 -0.0062  0.3223 -0.2222
    1DPPC   C3B18767  14.104   7.102   5.392 -0.2926  0.1303 -0.1136
    1DPPC   C4B18768  13.952   7.175   5.817  0.1103 -0.1477 -0.4085
    1DPPC   NC318769  19.638  14.261   2.582 -0.0132 -0.3900 -0.2391
    1DPPC   PO418770  20.087  14.350   2.368 -0.1803 -0.2987 -0.3351
    1DPPC   GL118771  20.188  14.274   2.745 -0.0737  0.0561  0.0465
    1DPPC   GL218772  20.258  14.019   2.861  0.3427 -0.0164  0.2421
    1DPPC   C1A18773  19.937  14.419   3.105  0.0646  0.0292  0.1360
    1DPPC   C2A18774  19.946  14.364   3.511 -0.0440 -0.0618  0.1411
    1DPPC   C3A18775  19.843  14.666   3.802  0.1293 -0.0031  0.1401
    1DPPC   C4A18776  19.812  15.111   3.701  0.0556  0.2046  0.0860
    1DPPC   C1B18777  20.145  13.915   3.289  0.3257  0.1590  0.1518
    1DPPC   C2B18778  20.159  14.053   3.805  0.2453  0.3186 -0.2827
    1DPPC   C3B18779  20.142  14.397   4.042 -0.0427 -0.0169 -0.1660
    1DPPC   C4B18780  19.814  14.666   4.292 -0.1703 -0.2866 -0.4217
    1DPPC   NC318781   1.425  27.585   1.744  0.1460  0.0123  0.2653
    1DPPC   PO418782   1.128  27.186   1.892  0.0161  0.3196 -0.0540
    1DPPC   GL118783   1.289  27.377   2.247  0.3646 -0.1411 -0.0027
    1DPPC   GL218784   0.973  27.372   2.453 -0.3079 -0.0778  0.1868
    1DPPC   C1A18785   1.454  27.257   2.727 -0.1546  0.2997  0.0798
    1DPPC   C2A18786   1.602  27.067   2.990  0.0704  0.0546 -0.2038
    1DPPC   C3A18787   1.931  27.001   3.317 -0.0456 -0.2029 -0.1691
    1DPPC   C4A18788   2.093  27.297   3.679 -0.1003  0.4188 -0.3516
    1DPPC   C1B18789   1.007  27.440   2.825 -0.0532 -0.1550  0.2303
    1DPPC   C2B18790   1.228  27.328   3.196 -0.0176 -0.0580 -0.0344
    1DPPC   C3B18791   1.402  27.033   3.456 -0.2064 -0.2490  0.1862
    1DPPC   C4B18792   1.753  26.974   3.809 -0.2089  0.2084 -0.3080
    1DPPC   NC318793  21.328   6.987   3.233 -0.0010 -0.0083  0.2678
    1DPPC   PO418794  21.037   7.300   3.345  0.0733  0.0715  0.2868
    1DPPC   GL118795  21.019   7.391   3.758 -0.1612 -0.0533 -0.1750
    1DPPC   GL218796  21.285   7.532   3.904  0.2949  0.1077 -0.1826
    1DPPC   C1A18797  20.882   7.338   4.131  0.1270 -0.0665 -0.2646
    1DPPC   C2A18798  20.844   7.412   4.541  0.0460 -0.1872 -0.2921
    1DPPC   C3A18799  20.665   7.346   4.993 -0.1068  0.0033 -0.0288
    1DPPC   C4A18800  20.556   7.412   5.429 -0.0686  0.1749  0.2448
    1DPPC   C1B18801  21.322   7.438   4.408  0.1728  0.1542 -0.3072
    1DPPC   C2B18802  21.299   7.575   4.826 -0.0445 -0.1659 -0.2234
    1DPPC   C3B18803  21.114   7.569   5.222  0.0739  0.0891 -0.0804
    1DPPC   C4B18804  20.989   7.772   5.577 -0.2334 -0.2056 -0.1000
    1DPPC   NC318805  14.842  15.352   2.479  0.0299 -0.1258  0.0255
    1DPPC   PO418806  14.305  15.282   2.430  0.0871  0.1137  0.0992
    1DPPC   GL118807  14.458  15.155   2.766  0.2227 -0.0722 -0.0513
    1DPPC   GL218808  14.132  15.127   2.934  0.0072  0.0218  0.1111
    1DPPC   C1A18809  14.478  14.852   3.102 -0.0600 -0.0354  0.1994
    1DPPC   C2A18810  14.511  14.762   3.571 -0.2841 -0.3673 -0.0001
    1DPPC   C3A18811  14.460  15.027   3.932  0.0109  0.3340  0.0175
    1DPPC   C4A18812  14.841  15.118   4.155  0.1890  0.1436  0.0110
    1DPPC   C1B18813  14.197  15.187   3.306 -0.3886  0.0420 -0.3449
    1DPPC   C2B18814  14.395  15.398   3.626 -0.0337 -0.1961 -0.1773
    1DPPC   C3B18815  14.706  15.528   3.851  0.0364 -0.0609  0.0240
    1DPPC   C4B18816  14.876  15.954   3.975 -0.1456  0.0921  0.0019
    1DPPC   NC318817  20.440  25.795   1.992 -0.0497  0.2452  0.0309
    1DPPC   PO418818  20.540  25.342   2.353 -0.2967 -0.1584 -0.0698
    1DPPC   GL118819  20.545  25.213   2.746  0.1040  0.1712  0.0813
    1DPPC   GL218820  20.418  24.878   2.729 -0.4129  0.0228 -0.1256
    1DPPC   C1A18821  20.631  25.041   3.222 -0.4507  0.3095 -0.0520
    1DPPC   C2A18822  20.434  24.930   3.546  0.2167  0.2278  0.1019
    1DPPC   C3A18823  20.047  24.778   3.794  0.1046 -0.3457 -0.1155
    1DPPC   C4A18824  19.693  24.425   3.868 -0.1971  0.2634  0.0051
    1DPPC   C1B18825  20.190  24.982   3.039  0.0345  0.0124  0.0027
    1DPPC   C2B18826  19.841  25.260   3.117 -0.0723 -0.1206 -0.0043
    1DPPC   C3B18827  19.450  25.361   2.873  0.0106  0.0848  0.0596
    1DPPC   C4B18828  19.168  25.244   2.579 -0.0736  0.1079  0.1655
    1DPPC   NC318829  24.043  17.206   2.396 -0.0548  0.2477 -0.1824
    1DPPC   PO418830  24.182  16.742   2.450  0.2246  0.2396 -0.0147
    1DPPC   GL118831  23.806  16.865   2.715  0.2207  0.2770 -0.2767
    1DPPC   GL218832  23.950  17.150   2.906  0.0423  0.0301  0.0186
    1DPPC   C1A18833  23.406  16.920   2.962 -0.0765 -0.0972 -0.1861
    1DPPC   C2A18834  23.333  16.881   3.452 -0.1067  0.3507 -0.1446
    1DPPC   C3A18835  23.282  16.797   3.833 -0.1710  0.2379 -0.1080
    1DPPC   C4A18836  23.316  16.962   4.217 -0.0729  0.0124  0.2017
    1DPPC   C1B18837  23.808  17.152   3.263  0.0718 -0.1969 -0.0241
    1DPPC   C2B18838  23.628  17.207   3.632  0.2180 -0.0245  0.0668
    1DPPC   C3B18839  23.254  17.429   4.006 -0.1078 -0.3451  0.0514
    1DPPC   C4B18840  22.843  17.550   4.068  0.0241 -0.0297 -0.0148
    1DPPC   NC318841  18.784   0.904   3.331  0.1009  0.0670  0.1509
    1DPPC   PO418842  18.853   0.738   3.807  0.0836  0.3092 -0.1106
    1DPPC   GL118843  19.081   0.572   4.113 -0.1430 -0.0129 -0.0604
    1DPPC   GL218844  19.180   0.836   4.398 -0.0157 -0.1854  0.0730
    1DPPC   C1A18845  19.111   0.279   4.499  0.3692  0.1604  0.3415
    1DPPC   C2A18846  19.331   0.164   4.950 -0.2394 -0.1073 -0.1083
    1DPPC   C3A18847  19.464  29.666   5.244  0.1403 -0.2003 -0.2039
    1DPPC   C4A18848  19.175  29.557   5.638 -0.4064  0.0483 -0.0229
    1DPPC   C1B18849  19.168   0.667   4.801  0.0438  0.2312  0.1923
    1DPPC   C2B18850  19.421   0.547   5.203  0.1779  0.2288 -0.0959
    1DPPC   C3B18851  19.184   0.466   5.537  0.0751 -0.0498  0.1442
    1DPPC   C4B18852  18.907   0.256   5.709 -0.2518  0.0391  0.1346
    1DPPC   NC318853   2.209  17.024   2.916 -0.2257  0.0896  0.2214
    1DPPC   PO418854   1.827  16.919   2.810  0.1468  0.0072  0.1386
    1DPPC   GL118855   1.843  16.916   3.292  0.0163 -0.3000 -0.3059
    1DPPC   GL218856   1.893  16.655   3.410  0.0266 -0.3187 -0.0181
    1DPPC   C1A18857   1.562  17.110   3.650 -0.1109  0.0831 -0.1580
    1DPPC   C2A18858   1.540  17.036   4.080 -0.0400  0.2315  0.0109
    1DPPC   C3A18859   1.503  16.763   4.404 -0.2585  0.1799  0.2466
    1DPPC   C4A18860   1.584  16.637   4.876 -0.0611  0.0829  0.3147
    1DPPC   C1B18861   1.888  16.716   3.790 -0.0518 -0.0681  0.2176
    1DPPC   C2B18862   1.846  16.582   4.139  0.0006 -0.1089 -0.1576
    1DPPC   C3B18863   1.789  16.370   4.511  0.2460 -0.1217  0.2264
    1DPPC   C4B18864   1.581  15.983   4.848  0.0864 -0.1139  0.2032
    1DPPC   NC318865  26.930   6.339   2.811 -0.1570 -0.0096  0.3561
    1DPPC   PO418866  26.706   6.034   2.995  0.0492 -0.1923  0.2470
    1DPPC   GL118867  26.998   5.989   3.383  0.0324 -0.2670 -0.1345
    1DPPC   GL218868  26.763   5.702   3.596  0.0751  0.1805 -0.0270
    1DPPC   C1A18869  27.305   6.228   3.699  0.1880 -0.1491 -0.1632
    1DPPC   C2A18870  27.239   6.428   4.165 -0.0456  0.1099  0.1158
    1DPPC   C3A18871  27.287   6.348   4.618 -0.2736 -0.1156  0.0715
    1DPPC   C4A18872  27.524   6.131   4.968 -0.7342  0.0434 -0.0149
    1DPPC   C1B18873  26.487   5.582   3.887  0.0423  0.1178 -0.1104
    1DPPC   C2B18874  26.367   5.506   4.359 -0.0353 -0.1850  0.3562
    1DPPC   C3B18875  26.127   5.534   4.784 -0.0571 -0.0033  0.0752
    1DPPC   C4B18876  26.195   5.407   5.137 -0.0012 -0.0822  0.0882
    1DPPC   NC318877  16.452   5.468   3.660  0.3009  0.1780 -0.0579
    1DPPC   PO418878  16.362   5.073   3.669 -0.0497 -0.1673  0.1134
    1DPPC   GL118879  16.394   5.266   4.137 -0.1495 -0.0813 -0.1367
    1DPPC   GL218880  16.695   5.298   4.287 -0.1174  0.0228 -0.2389
    1DPPC   C1A18881  16.382   4.987   4.456  0.1439 -0.0727  0.4812
    1DPPC   C2A18882  16.418   4.912   4.873  0.0562 -0.1694  0.0680
    1DPPC   C3A18883  16.395   4.927   5.257  0.1353  0.4134  0.1531
    1DPPC   C4A18884  16.201   4.563   5.540 -0.0956 -0.3010 -0.3756
    1DPPC   C1B18885  17.017   5.419   4.603 -0.1118  0.1142  0.2977
    1DPPC   C2B18886  16.919   5.478   5.027  0.2259  0.2201 -0.0482
    1DPPC   C3B18887  16.979   5.684   5.412  0.2937  0.2082 -0.3443
    1DPPC   C4B18888  17.012   5.873   5.770  0.0423 -0.1876  0.0290
    1DPPC   NC318889  22.571   5.027   3.954  0.2207  0.0440  0.3248
    1DPPC   PO418890  22.484   4.656   4.171  0.0082 -0.1658  0.2433
    1DPPC   GL118891  22.354   4.953   4.494 -0.0841 -0.0307  0.1931
    1DPPC   GL218892  22.333   5.239   4.364  0.1236 -0.2511  0.3598
    1DPPC   C1A18893  22.339   5.166   4.906 -0.0796 -0.1609 -0.0692
    1DPPC   C2A18894  22.625   5.488   5.064  0.0090 -0.2250 -0.0055
    1DPPC   C3A18895  22.759   5.735   5.345  0.0001 -0.0341  0.1329
    1DPPC   C4A18896  22.755   5.814   5.768  0.0855  0.1207 -0.2874
    1DPPC   C1B18897  22.757   5.194   4.585  0.0288 -0.2923 -0.3117
    1DPPC   C2B18898  23.049   5.158   4.791 -0.0531  0.3344  0.0374
    1DPPC   C3B18899  23.238   5.278   5.264  0.0043  0.0312  0.3231
    1DPPC   C4B18900  23.262   5.746   5.523 -0.1023 -0.0369  0.1199
    1DPPC   NC318901  23.832   8.511   3.215  0.1639  0.1249  0.0793
    1DPPC   PO418902  24.048   8.796   3.123  0.2112  0.2345  0.1140
    1DPPC   GL118903  24.058   8.909   3.400 -0.1328  0.5033 -0.1757
    1DPPC   GL218904  23.855   9.190   3.453  0.0009 -0.0607 -0.1804
    1DPPC   C1A18905  24.093   8.668   3.796 -0.1013  0.3561  0.0628
    1DPPC   C2A18906  24.290   8.597   4.296 -0.2596 -0.1411 -0.3475
    1DPPC   C3A18907  24.505   8.776   4.651  0.3060 -0.0517  0.1399
    1DPPC   C4A18908  24.395   9.081   5.029 -0.3829 -0.0194 -0.1153
    1DPPC   C1B18909  23.635   8.997   3.770 -0.1414 -0.0861  0.2865
    1DPPC   C2B18910  23.876   8.887   4.202  0.2391  0.1741  0.0829
    1DPPC   C3B18911  24.048   8.971   4.600 -0.0223 -0.0129 -0.2241
    1DPPC   C4B18912  23.855   9.243   5.000 -0.0850  0.1308 -0.0058
    1DPPC   NC318913  17.699  13.209   2.535 -0.0962  0.1383  0.0487
    1DPPC   PO418914  17.306  13.458   2.347  0.1015 -0.1192  0.2527
    1DPPC   GL118915  17.447  13.545   2.775 -0.0933 -0.0637  0.0534
    1DPPC   GL218916  17.454  13.407   3.063  0.1238 -0.0848  0.0769
    1DPPC   C1A18917  17.413  13.781   3.348  0.1320 -0.1761  0.2986
    1DPPC   C2A18918  17.364  13.964   3.716  0.1767  0.2604 -0.5087
    1DPPC   C3A18919  17.362  14.123   4.115 -0.0640 -0.0039 -0.3195
    1DPPC   C4A18920  17.413  14.427   4.502 -0.0634 -0.0327  0.0994
    1DPPC   C1B18921  17.313  13.343   3.529  0.0770 -0.4172 -0.0270
    1DPPC   C2B18922  17.449  13.446   3.908 -0.0840 -0.1282  0.4300
    1DPPC   C3B18923  17.214  13.374   4.298  0.3599 -0.4182 -0.2701
    1DPPC   C4B18924  16.886  13.443   4.642 -0.1845 -0.1311  0.1308
    1DPPC   NC318925  22.829  12.330   2.385 -0.0360  0.2741  0.0784
    1DPPC   PO418926  22.616  12.674   2.504  0.1182 -0.0310  0.1938
    1DPPC   GL118927  22.792  12.633   2.840 -0.1090 -0.1411  0.2825
    1DPPC   GL218928  23.026  12.317   2.882  0.2604 -0.2525 -0.3241
    1DPPC   C1A18929  22.810  12.953   3.278  0.1925  0.0306  0.0297
    1DPPC   C2A18930  22.817  13.001   3.705  0.4797  0.1441  0.1649
    1DPPC   C3A18931  22.849  12.945   4.143  0.1430  0.0768  0.3207
    1DPPC   C4A18932  23.028  12.868   4.568 -0.1839 -0.1547 -0.2576
    1DPPC   C1B18933  22.933  11.987   3.130 -0.1415  0.1587  0.2504
    1DPPC   C2B18934  23.032  12.049   3.560 -0.0304  0.1942  0.0662
    1DPPC   C3B18935  23.036  12.246   3.921 -0.1338  0.0143 -0.2401
    1DPPC   C4B18936  22.795  12.476   4.211  0.0212  0.1038  0.2727
    1DPPC   NC318937  19.336  10.693   2.805  0.1106  0.2079 -0.1417
    1DPPC   PO418938  19.568  11.086   2.875  0.2403 -0.1043 -0.2175
    1DPPC   GL118939  19.738  11.423   3.217 -0.2913 -0.1589 -0.3050
    1DPPC   GL218940  19.948  11.596   2.965 -0.1779  0.0438  0.0450
    1DPPC   C1A18941  19.729  11.609   3.508  0.1759  0.1342 -0.3684
    1DPPC   C2A18942  19.798  11.731   3.988 -0.2058  0.2167 -0.1587
    1DPPC   C3A18943  19.742  11.685   4.362 -0.0177 -0.1887 -0.0160
    1DPPC   C4A18944  19.585  11.793   4.710  0.1071  0.1992  0.0364
    1DPPC   C1B18945  20.206  11.723   3.312  0.0911  0.3693  0.1448
    1DPPC   C2B18946  20.234  11.675   3.806  0.3135 -0.0605  0.0565
    1DPPC   C3B18947  20.213  11.779   4.291  0.1900  0.1815  0.0169
    1DPPC   C4B18948  20.269  11.668   4.776 -0.1423  0.1159 -0.1596
    1DPPC   NC318949  19.707   9.885   3.163 -0.0562  0.2974 -0.0587
    1DPPC   PO418950  19.343  10.141   3.014  0.1015  0.1274 -0.1596
    1DPPC   GL118951  19.379  10.254   3.391 -0.2285  0.0699 -0.0306
    1DPPC   GL218952  19.274  10.500   3.305 -0.2158  0.3347  0.1505
    1DPPC   C1A18953  19.548  10.566   3.722  0.1025  0.1500  0.0507
    1DPPC   C2A18954  19.565  10.512   4.156 -0.0473 -0.1808 -0.0419
    1DPPC   C3A18955  19.625  10.376   4.630 -0.2958 -0.2210  0.0360
    1DPPC   C4A18956  19.556  10.221   4.985  0.0857 -0.0397 -0.1234
    1DPPC   C1B18957  19.079  10.594   3.601  0.1118 -0.3228  0.0753
    1DPPC   C2B18958  19.093  10.713   4.037  0.3542 -0.2270 -0.0080
    1DPPC   C3B18959  19.356  10.829   4.468  0.2978  0.1133 -0.1624
    1DPPC   C4B18960  19.218  10.894   4.888 -0.2450  0.2161  0.1057
    1DPPC   NC318961  27.646   5.968   2.719 -0.0021 -0.2067  0.2006
    1DPPC   PO418962  27.465   6.367   2.760 -0.1606  0.3324  0.1967
    1DPPC   GL118963  27.373   6.279   3.151  0.0444  0.0730  0.0849
    1DPPC   GL218964  27.681   6.154   3.186 -0.1221  0.1118  0.0597
    1DPPC   C1A18965  27.175   6.563   3.392 -0.0996  0.0898 -0.2079
    1DPPC   C2A18966  26.974   6.670   3.750  0.0153 -0.3718  0.0728
    1DPPC   C3A18967  26.828   6.843   4.077 -0.1167  0.1117  0.0296
    1DPPC   C4A18968  27.028   6.869   4.482 -0.0709  0.1895  0.2776
    1DPPC   C1B18969  27.681   5.940   3.454  0.3905 -0.0715 -0.0800
    1DPPC   C2B18970  27.823   5.498   3.633  0.0489 -0.1994  0.0217
    1DPPC   C3B18971  27.951   4.995   3.692  0.0284 -0.0613  0.1046
    1DPPC   C4B18972  28.149   4.803   3.505  0.2410  0.0761  0.0589
    1DPPC   NC318973  18.259  13.145   2.636 -0.0649  0.0374  0.0848
    1DPPC   PO418974  18.671  13.340   2.615  0.0023  0.0585  0.0197
    1DPPC   GL118975  18.585  13.162   3.031 -0.1095 -0.1409  0.1030
    1DPPC   GL218976  18.818  13.298   3.136 -0.0375  0.1337 -0.1801
    1DPPC   C1A18977  18.287  13.232   3.289 -0.2944  0.0475 -0.0808
    1DPPC   C2A18978  18.309  13.285   3.746 -0.2404  0.2194  0.0563
    1DPPC   C3A18979  18.161  13.465   4.203  0.1486 -0.2287  0.1258
    1DPPC   C4A18980  18.154  13.679   4.610  0.2387 -0.0891  0.0813
    1DPPC   C1B18981  19.134  13.271   3.436 -0.0508  0.1179 -0.0181
    1DPPC   C2B18982  19.177  13.486   3.816 -0.1845  0.0810  0.1661
    1DPPC   C3B18983  19.176  13.389   4.235 -0.0703  0.3053  0.1925
    1DPPC   C4B18984  19.115  13.371   4.745  0.2368 -0.1351 -0.3246
    1DPPC   NC318985  17.748  21.169   1.529  0.3665  0.1294 -0.0801
    1DPPC   PO418986  17.376  21.287   1.483  0.1057  0.3785  0.3245
    1DPPC   GL118987  17.377  21.329   1.824  0.2222  0.1340 -0.0082
    1DPPC   GL218988  17.248  21.103   1.971  0.1004 -0.0788 -0.0143
    1DPPC   C1A18989  17.532  21.694   2.168 -0.0863  0.3092 -0.1091
    1DPPC   C2A18990  17.625  21.976   2.456 -0.3869 -0.0642  0.0331
    1DPPC   C3A18991  17.877  22.141   2.775 -0.2343  0.1600  0.1788
    1DPPC   C4A18992  18.134  22.302   3.141 -0.1689  0.2295 -0.0983
    1DPPC   C1B18993  17.380  21.254   2.354  0.1046  0.1554  0.0571
    1DPPC   C2B18994  17.564  21.411   2.628  0.1613  0.0256 -0.3490
    1DPPC   C3B18995  17.418  21.543   2.959  0.0986  0.4099 -0.2731
    1DPPC   C4B18996  17.260  21.279   3.322 -0.0462  0.0369 -0.0732
    1DPPC   NC318997  23.645   8.098   2.625 -0.0481 -0.0033 -0.0698
    1DPPC   PO418998  23.584   8.133   3.070  0.0334 -0.0712 -0.0160
    1DPPC   GL118999  23.538   8.250   3.432 -0.3374  0.0430 -0.1817
    1DPPC   GL219000  23.675   8.177   3.710  0.1542 -0.2781  0.0328
    1DPPC   C1A19001  23.354   8.599   3.758  0.0709  0.3118 -0.0585
    1DPPC   C2A19002  23.306   8.664   4.243  0.1357  0.2312  0.2093
    1DPPC   C3A19003  22.979   8.647   4.501  0.2514  0.2327  0.1857
    1DPPC   C4A19004  22.868   8.732   4.931  0.2559 -0.2661  0.2836
    1DPPC   C1B19005  23.765   8.363   4.074 -0.0118 -0.0971 -0.3500
    1DPPC   C2B19006  23.831   8.453   4.454  0.1279  0.1263 -0.0589
    1DPPC   C3B19007  23.792   8.558   4.906 -0.1182 -0.0507  0.0198
    1DPPC   C4B19008  23.689   8.752   5.277  0.2149  0.0010 -0.1749
    1DPPC   NC319009  20.065  16.067   2.201  0.1542 -0.0007 -0.1214
    1DPPC   PO419010  19.922  16.484   2.243 -0.0501  0.1713  0.0536
    1DPPC   GL119011  19.961  16.418   2.624  0.0800  0.4941 -0.2561
    1DPPC   GL219012  19.988  16.106   2.725 -0.3269 -0.0046  0.0621
    1DPPC   C1A19013  19.935  16.644   3.020 -0.0089  0.3056 -0.0856
    1DPPC   C2A19014  19.958  16.666   3.444 -0.2811  0.0830  0.0393
    1DPPC   C3A19015  19.810  16.596   3.940 -0.1424  0.1202  0.0931
    1DPPC   C4A19016  20.051  16.258   4.233  0.0217 -0.2035  0.0442
    1DPPC   C1B19017  20.106  16.152   3.047 -0.0896  0.1222  0.2909
    1DPPC   C2B19018  20.264  16.246   3.292 -0.1052  0.0801 -0.0043
    1DPPC   C3B19019  20.329  16.403   3.737  0.1495 -0.1669 -0.3254
    1DPPC   C4B19020  20.607  16.417   3.982 -0.0737  0.0962 -0.0505
    1DPPC   NC319021  18.631   6.389   3.121  0.1708  0.0424  0.0431
    1DPPC   PO419022  18.455   6.759   3.193  0.1267 -0.1631 -0.0955
    1DPPC   GL119023  18.490   6.533   3.655  0.2290 -0.2217  0.2355
    1DPPC   GL219024  18.217   6.421   3.814 -0.0522  0.1245  0.2118
    1DPPC   C1A19025  18.730   6.563   4.101  0.1995 -0.0538  0.2694
    1DPPC   C2A19026  18.763   6.610   4.490  0.0828 -0.1512  0.0551
    1DPPC   C3A19027  18.773   6.564   4.918 -0.1557  0.2844  0.0005
    1DPPC   C4A19028  18.719   6.359   5.311 -0.1127 -0.0227  0.0859
    1DPPC   C1B19029  18.291   6.443   4.257  0.1229 -0.0707  0.1097
    1DPPC   C2B19030  18.297   6.430   4.741  0.0324  0.1730  0.0139
    1DPPC   C3B19031  18.260   6.463   5.176 -0.0141 -0.0235 -0.1139
    1DPPC   C4B19032  18.049   6.673   5.422  0.1918 -0.0441 -0.0337
    1DPPC   NC319033  25.118  16.161   2.702  0.0682 -0.0576  0.2584
    1DPPC   PO419034  25.534  15.871   2.733 -0.0222  0.0163  0.0161
    1DPPC   GL119035  25.427  15.962   3.174  0.0113 -0.3849 -0.1705
    1DPPC   GL219036  25.444  16.160   3.422 -0.0751 -0.0330  0.0719
    1DPPC   C1A19037  25.410  15.621   3.469 -0.0783  0.1266 -0.2597
    1DPPC   C2A19038  25.476  15.493   3.937 -0.1834 -0.1306 -0.2650
    1DPPC   C3A19039  25.532  15.630   4.314 -0.1085 -0.0580 -0.2517
    1DPPC   C4A19040  25.733  15.417   4.612  0.1696 -0.0060  0.0230
    1DPPC   C1B19041  25.387  16.019   3.813 -0.2080  0.0214 -0.1105
    1DPPC   C2B19042  25.402  16.162   4.167  0.3331  0.0072  0.1744
    1DPPC   C3B19043  25.455  16.149   4.511  0.1832  0.0332 -0.1285
    1DPPC   C4B19044  25.408  16.077   4.919  0.0143 -0.0997  0.0581
    1DPPC   NC319045  13.896   2.530   4.275  0.0638  0.0575 -0.0579
    1DPPC   PO419046  14.117   2.948   4.098 -0.0403  0.0752 -0.1846
    1DPPC   GL119047  14.297   2.695   4.479  0.2077  0.1285  0.0743
    1DPPC   GL219048  14.040   2.896   4.621 -0.0053 -0.1560 -0.2561
    1DPPC   C1A19049  14.500   2.518   4.745 -0.1271 -0.3399  0.2792
    1DPPC   C2A19050  14.363   2.515   5.138 -0.2627 -0.0768  0.2951
    1DPPC   C3A19051  14.103   2.479   5.481  0.1929  0.0116  0.0259
    1DPPC   C4A19052  13.830   2.361   5.760  0.1824  0.0198 -0.0911
    1DPPC   C1B19053  13.809   2.743   4.920 -0.2692  0.1622  0.2740
    1DPPC   C2B19054  13.581   2.783   5.218  0.1796 -0.0158  0.3000
    1DPPC   C3B19055  13.411   2.582   5.434  0.0301  0.0619 -0.1168
    1DPPC   C4B19056  13.310   2.667   5.872  0.0519  0.2312 -0.3979
    1DPPC   NC319057  26.461   8.051   2.750  0.1845  0.1939  0.3691
    1DPPC   PO419058  26.028   8.021   2.881  0.0855  0.0493  0.2201
    1DPPC   GL119059  26.320   7.867   3.279 -0.0051 -0.0998  0.0268
    1DPPC   GL219060  26.388   7.535   3.294  0.1430 -0.2361  0.1289
    1DPPC   C1A19061  26.538   8.059   3.653 -0.0983 -0.2710  0.3127
    1DPPC   C2A19062  26.694   8.253   4.029  0.1330  0.2081 -0.1147
    1DPPC   C3A19063  26.648   8.348   4.415  0.0294 -0.2217 -0.0454
    1DPPC   C4A19064  26.591   8.660   4.686  0.1814 -0.2948  0.1477
    1DPPC   C1B19065  26.265   7.539   3.722  0.1963  0.0168 -0.0099
    1DPPC   C2B19066  26.566   7.650   3.966  0.0607  0.1683 -0.2644
    1DPPC   C3B19067  26.503   7.824   4.312 -0.0441  0.2523 -0.0396
    1DPPC   C4B19068  26.502   7.878   4.718 -0.2072  0.2559 -0.2797
    1DPPC   NC319069  16.739  12.104   2.677 -0.0037 -0.1860  0.2738
    1DPPC   PO419070  16.372  12.019   2.866 -0.0300 -0.0659 -0.4991
    1DPPC   GL119071  16.297  12.020   3.289  0.0883 -0.3514  0.0639
    1DPPC   GL219072  16.145  12.325   3.239  0.1606 -0.0132  0.1275
    1DPPC   C1A19073  16.305  12.113   3.698 -0.0154 -0.0511  0.1878
    1DPPC   C2A19074  16.223  12.126   4.116  0.0869  0.2619 -0.2672
    1DPPC   C3A19075  15.880  12.113   4.479 -0.0739  0.1498 -0.2979
    1DPPC   C4A19076  16.036  12.135   4.893  0.0743 -0.0300  0.1397
    1DPPC   C1B19077  15.845  12.249   3.558 -0.2889 -0.4715 -0.1720
    1DPPC   C2B19078  15.810  12.277   3.923  0.2349 -0.0837  0.0857
    1DPPC   C3B19079  15.516  12.457   4.196  0.1178  0.0715  0.1451
    1DPPC   C4B19080  15.454  12.620   4.662  0.1539  0.0576  0.0275
    1DPPC   NC319081  26.122  23.673   2.824  0.1325 -0.2484 -0.1779
    1DPPC   PO419082  25.904  23.963   3.142 -0.1287  0.2777 -0.1231
    1DPPC   GL119083  26.030  24.112   3.473  0.0711  0.3653 -0.1917
    1DPPC   GL219084  26.116  23.893   3.710 -0.3644 -0.2368 -0.0774
    1DPPC   C1A19085  26.182  24.253   4.016 -0.2156 -0.2425  0.4375
    1DPPC   C2A19086  26.001  24.084   4.356 -0.2288  0.0201  0.2566
    1DPPC   C3A19087  25.688  23.903   4.395 -0.0419 -0.0230  0.0298
    1DPPC   C4A19088  25.406  23.565   4.477  0.0621 -0.0729  0.1816
    1DPPC   C1B19089  25.883  23.546   3.972  0.0512 -0.1175  0.1249
    1DPPC   C2B19090  25.918  23.446   4.418  0.1580  0.1681  0.1047
    1DPPC   C3B19091  26.124  23.575   4.751 -0.0852 -0.2733  0.0465
    1DPPC   C4B19092  26.313  23.893   4.820  0.0397 -0.0739  0.3831
    1DPPC   NC319093   2.715   7.909   2.625  0.0899 -0.1569  0.3326
    1DPPC   PO419094   2.453   7.767   2.871 -0.4125  0.1975 -0.1347
    1DPPC   GL119095   2.181   7.743   3.249  0.1007 -0.0490 -0.0061
    1DPPC   GL219096   2.158   8.017   3.334 -0.1047 -0.0267  0.0075
    1DPPC   C1A19097   2.183   7.659   3.793 -0.0010  0.2478  0.0643
    1DPPC   C2A19098   2.581   7.598   4.018  0.2079  0.0305  0.0914
    1DPPC   C3A19099   2.937   7.363   3.861  0.0149  0.3160  0.1860
    1DPPC   C4A19100   3.205   7.148   4.018  0.0981 -0.1667 -0.1563
    1DPPC   C1B19101   1.818   8.041   3.641  0.2163  0.2825  0.2036
    1DPPC   C2B19102   1.796   8.198   4.030 -0.0629  0.0275  0.1421
    1DPPC   C3B19103   1.803   8.620   4.161  0.2552  0.1282  0.0410
    1DPPC   C4B19104   2.040   8.974   4.312  0.1853 -0.0259  0.2231
    1DPPC   NC319105  16.108   6.296   3.554  0.1020  0.1934  0.3053
    1DPPC   PO419106  16.553   6.421   3.469 -0.0215  0.1412 -0.2556
    1DPPC   GL119107  16.761   6.343   3.810 -0.0081  0.3691 -0.0559
    1DPPC   GL219108  16.916   6.665   3.974  0.1084 -0.1993 -0.2607
    1DPPC   C1A19109  16.795   6.236   4.277  0.1442 -0.1180  0.0026
    1DPPC   C2A19110  16.589   6.466   4.553  0.1781  0.0574  0.1373
    1DPPC   C3A19111  16.583   6.573   4.930  0.0157  0.2322  0.1230
    1DPPC   C4A19112  16.500   6.743   5.311  0.0182  0.2442  0.1258
    1DPPC   C1B19113  17.042   6.658   4.370 -0.0222 -0.1066  0.1428
    1DPPC   C2B19114  17.038   6.793   4.727 -0.2760 -0.1802  0.1093
    1DPPC   C3B19115  17.015   6.715   5.177  0.1912 -0.0577 -0.0940
    1DPPC   C4B19116  16.886   6.836   5.625 -0.0569 -0.0104  0.0355
    1DPPC   NC319117  16.283  20.708   2.021 -0.0645  0.0589 -0.1695
    1DPPC   PO419118  15.936  20.365   2.035  0.2014  0.1852  0.2995
    1DPPC   GL119119  15.737  20.637   2.305  0.2753  0.2045  0.2301
    1DPPC   GL219120  15.388  20.647   2.361  0.0900  0.0736  0.0791
    1DPPC   C1A19121  15.865  21.001   2.562  0.2050 -0.0709 -0.3041
    1DPPC   C2A19122  15.696  20.947   3.040 -0.0529  0.0175  0.1607
    1DPPC   C3A19123  15.406  21.109   3.367  0.1219  0.1892 -0.0877
    1DPPC   C4A19124  15.173  21.179   3.737 -0.1813 -0.2783  0.0935
    1DPPC   C1B19125  15.399  20.726   2.679 -0.1695  0.1136  0.0477
    1DPPC   C2B19126  15.469  20.378   3.049  0.0777 -0.0678  0.3881
    1DPPC   C3B19127  15.561  20.169   3.430 -0.0590  0.1309 -0.2366
    1DPPC   C4B19128  15.577  19.968   3.714 -0.0589 -0.0613  0.1343
    1DPPC   NC319129  18.690   1.182   4.166 -0.0906  0.0967 -0.0128
    1DPPC   PO419130  18.696   0.787   4.274  0.2546 -0.0028  0.3151
    1DPPC   GL119131  18.338   0.828   4.519  0.1292 -0.0204 -0.1020
    1DPPC   GL219132  17.942   0.812   4.564 -0.2749 -0.0996 -0.1237
    1DPPC   C1A19133  18.257   0.647   4.929  0.0072 -0.2165 -0.0997
    1DPPC   C2A19134  17.959   0.481   5.306  0.2204  0.0871 -0.1304
    1DPPC   C3A19135  17.623   0.272   5.517 -0.0734  0.0086  0.1171
    1DPPC   C4A19136  17.425  29.744   5.638  0.0836 -0.0923  0.2942
    1DPPC   C1B19137  17.957   1.104   4.907 -0.1062 -0.0634 -0.1314
    1DPPC   C2B19138  18.097   1.001   5.346  0.0161  0.1178  0.0231
    1DPPC   C3B19139  18.407   1.203   5.731 -0.0922 -0.1136  0.2173
    1DPPC   C4B19140  18.789   1.106   5.823 -0.1291  0.0452  0.2668
    1DPPC   NC319141   2.965  16.338   2.282 -0.0283 -0.1786  0.1528
    1DPPC   PO419142   3.160  16.235   2.711  0.2750  0.0261  0.1274
    1DPPC   GL119143   3.189  16.324   3.263 -0.1923 -0.1549  0.0427
    1DPPC   GL219144   3.255  16.043   3.553  0.0605  0.2358 -0.0030
    1DPPC   C1A19145   3.018  16.569   3.679 -0.0169  0.0690 -0.0029
    1DPPC   C2A19146   2.921  16.533   4.171  0.3420 -0.0128 -0.1637
    1DPPC   C3A19147   2.805  16.700   4.475 -0.0763 -0.1817 -0.0913
    1DPPC   C4A19148   2.670  17.011   4.863 -0.1682  0.0861  0.1471
    1DPPC   C1B19149   3.179  16.034   4.060 -0.1402 -0.0720  0.2029
    1DPPC   C2B19150   3.212  16.327   4.507  0.0774  0.2222  0.3651
    1DPPC   C3B19151   3.254  16.585   4.784  0.1368 -0.1546  0.4307
    1DPPC   C4B19152   2.948  16.598   5.114 -0.0200  0.1322 -0.0379
    1DIPC   NC319153   3.606   4.627   2.714 -0.0644 -0.1548 -0.1431
    1DIPC   PO419154   3.317   4.731   2.992  0.2853 -0.0475  0.1408
    1DIPC   GL119155   3.326   4.760   3.400  0.3654  0.2206 -0.0585
    1DIPC   GL219156   3.143   4.433   3.385 -0.0640  0.1056 -0.3788
    1DIPC   C1A19157   3.458   4.836   3.802 -0.1469 -0.0262 -0.0677
    1DIPC   D2A19158   3.244   5.016   4.199 -0.1652  0.0869 -0.1575
    1DIPC   D3A19159   3.118   5.122   4.640 -0.0164  0.1405 -0.4980
    1DIPC   C4A19160   3.225   5.485   4.914 -0.0947  0.2442 -0.1150
    1DIPC   C1B19161   2.874   4.723   3.721  0.2471 -0.2582 -0.0630
    1DIPC   D2B19162   2.749   4.883   4.187 -0.2423  0.0117 -0.1303
    1DIPC   D3B19163   2.914   5.366   4.256 -0.1062  0.0490  0.1654
    1DIPC   C4B19164   2.819   5.565   4.590  0.2855  0.0987  0.3922
    1DIPC   NC319165   7.988  19.878   2.206  0.3553  0.2046 -0.2358
    1DIPC   PO419166   8.276  19.536   2.404 -0.4257  0.0111  0.3040
    1DIPC   GL119167   8.433  19.596   2.789 -0.2382  0.0852 -0.0487
    1DIPC   GL219168   8.648  19.568   3.048 -0.3275 -0.2696 -0.1599
    1DIPC   C1A19169   8.239  19.778   3.248 -0.2397 -0.1755 -0.0812
    1DIPC   D2A19170   8.135  19.549   3.558  0.2740  0.0879 -0.0457
    1DIPC   D3A19171   7.774  19.208   3.521 -0.1247 -0.1918  0.2161
    1DIPC   C4A19172   7.602  19.200   3.218  0.1095  0.0518 -0.2317
    1DIPC   C1B19173   8.532  19.170   3.347 -0.0044  0.1627  0.0463
    1DIPC   D2B19174   8.286  18.979   3.406 -0.0415 -0.0428  0.0879
    1DIPC   D3B19175   8.067  18.895   3.690 -0.3956  0.0273  0.0584
    1DIPC   C4B19176   8.213  18.702   4.051  0.0357  0.0705 -0.0096
    1DIPC   NC319177   3.750  17.399   2.800  0.0615  0.3114 -0.0618
    1DIPC   PO419178   3.546  17.783   2.961  0.1875  0.1355  0.1928
    1DIPC   GL119179   3.564  17.877   3.277 -0.0888 -0.0232  0.0741
    1DIPC   GL219180   3.127  17.810   3.365 -0.2508  0.0402  0.1229
    1DIPC   C1A19181   3.502  17.912   3.720 -0.0883  0.0337  0.0989
    1DIPC   D2A19182   3.170  17.997   3.965 -0.1432 -0.3698  0.2403
    1DIPC   D3A19183   2.961  17.811   4.318 -0.2259 -0.0395 -0.2207
    1DIPC   C4A19184   2.824  17.933   4.737 -0.1508  0.0842 -0.0789
    1DIPC   C1B19185   3.090  18.310   3.508 -0.0346 -0.0588 -0.1874
    1DIPC   D2B19186   3.002  18.474   3.904 -0.0860 -0.2250 -0.0002
    1DIPC   D3B19187   3.020  18.372   4.339 -0.0233  0.5108 -0.0358
    1DIPC   C4B19188   2.768  18.495   4.599  0.2209  0.3083  0.2609
    1DIPC   NC319189  21.195  29.644   3.123  0.3296 -0.3822 -0.1022
    1DIPC   PO419190  21.537  29.803   3.346  0.0431  0.0706 -0.0579
    1DIPC   GL119191  21.564  29.644   3.790 -0.0194 -0.0465  0.3606
    1DIPC   GL219192  21.419   0.027   3.994 -0.0487 -0.1650  0.0406
    1DIPC   C1A19193  21.682  29.353   4.176  0.1238  0.1879  0.0264
    1DIPC   D2A19194  22.058  29.338   4.284  0.1099 -0.3244  0.0460
    1DIPC   D3A19195  21.891  29.601   4.625  0.2150 -0.1388  0.0409
    1DIPC   C4A19196  21.551  29.650   4.875 -0.0732 -0.2092  0.2987
    1DIPC   C1B19197  21.391  29.653   4.397 -0.0654 -0.2538 -0.0248
    1DIPC   D2B19198  21.073  29.385   4.572 -0.1609  0.0722 -0.2818
    1DIPC   D3B19199  20.987  29.577   4.958 -0.1337  0.0901 -0.1879
    1DIPC   C4B19200  21.198   0.062   5.126  0.1851  0.2292 -0.0286
    1DIPC   NC319201   3.068  16.692   2.852  0.2208 -0.1032  0.0169
    1DIPC   PO419202   3.429  17.039   2.795 -0.0302 -0.1629 -0.4978
    1DIPC   GL119203   3.726  17.067   3.178 -0.1657 -0.1434  0.3389
    1DIPC   GL219204   3.777  17.398   3.293  0.0266 -0.1655  0.0686
    1DIPC   C1A19205   3.967  16.929   3.551 -0.0155 -0.2029 -0.0931
    1DIPC   D2A19206   4.145  16.910   3.839  0.3350 -0.1848  0.0305
    1DIPC   D3A19207   3.798  16.791   4.013  0.1862 -0.0250 -0.0508
    1DIPC   C4A19208   3.567  17.055   3.898  0.1054  0.2147 -0.0984
    1DIPC   C1B19209   3.431  17.388   3.563 -0.4396  0.0784  0.1135
    1DIPC   D2B19210   3.220  17.524   3.931 -0.0172 -0.1568  0.0585
    1DIPC   D3B19211   3.513  17.491   4.167 -0.4355 -0.3443 -0.1344
    1DIPC   C4B19212   3.666  17.215   4.528 -0.1588  0.0097 -0.0540
    1DIPC   NC319213  11.266  23.213   1.656 -0.2574 -0.1274 -0.3214
    1DIPC   PO419214  11.413  22.895   2.070 -0.3295  0.0783 -0.0566
    1DIPC   GL119215  11.817  22.924   2.334  0.3803  0.0033 -0.1592
    1DIPC   GL219216  12.023  23.113   2.291  0.3294  0.1693 -0.3380
    1DIPC   C1A19217  12.004  22.908   2.794  0.0830 -0.1646 -0.2033
    1DIPC   D2A19218  12.388  23.008   3.046  0.2256  0.2664 -0.3046
    1DIPC   D3A19219  12.412  23.182   3.516  0.1267  0.1362  0.3339
    1DIPC   C4A19220  12.358  23.634   3.562  0.1189 -0.1031  0.1388
    1DIPC   C1B19221  12.409  23.129   2.534  0.0383  0.0437  0.2382
    1DIPC   D2B19222  12.839  23.269   2.558  0.2496 -0.2965 -0.1016
    1DIPC   D3B19223  12.857  22.899   2.866  0.1089  0.1220  0.0160
    1DIPC   C4B19224  12.854  22.945   3.355 -0.0066 -0.1160 -0.0571
    1DIPC   NC319225  29.036   7.532   2.743  0.1114  0.2658 -0.1724
    1DIPC   PO419226  29.382   7.784   2.790  0.0347  0.0579 -0.0470
    1DIPC   GL119227  29.614   7.863   3.154 -0.2158 -0.2019  0.1406
    1DIPC   GL219228  29.531   8.059   3.431  0.0121 -0.1093 -0.1113
    1DIPC   C1A19229  29.701   7.598   3.536  0.0934 -0.0511 -0.2491
    1DIPC   D2A19230   0.082   7.549   3.985  0.0881  0.0855  0.0640
    1DIPC   D3A19231   0.385   7.487   3.666 -0.6123  0.1012  0.3701
    1DIPC   C4A19232   0.358   7.120   3.601  0.2256 -0.1952  0.0843
    1DIPC   C1B19233  29.461   8.045   3.818 -0.3499 -0.2435 -0.1442
    1DIPC   D2B19234  29.455   7.918   4.321  0.0700  0.0836  0.3585
    1DIPC   D3B19235  29.741   8.161   4.646 -0.0653  0.1939 -0.0376
    1DIPC   C4B19236   0.081   7.868   5.039  0.0110  0.0039 -0.3287
    1DIPC   NC319237  27.993  29.304   3.062  0.0779  0.1360 -0.0743
    1DIPC   PO419238  27.573  29.246   3.059 -0.2126  0.2961 -0.2506
    1DIPC   GL119239  27.532  29.080   3.376  0.3247 -0.1863  0.1827
    1DIPC   GL219240  27.728  28.842   3.465 -0.0383  0.1713 -0.0917
    1DIPC   C1A19241  27.458  28.986   3.859 -0.1545 -0.0865  0.2295
    1DIPC   D2A19242  27.170  28.673   4.157 -0.1964 -0.0103 -0.1820
    1DIPC   D3A19243  27.321  28.473   4.532 -0.2593 -0.2549 -0.0753
    1DIPC   C4A19244  27.725  28.586   4.706 -0.2324  0.0581  0.0553
    1DIPC   C1B19245  27.957  29.065   3.603 -0.2290 -0.0735 -0.2599
    1DIPC   D2B19246  27.905  29.135   4.114  0.1775 -0.0432 -0.2031
    1DIPC   D3B19247  28.252  29.313   4.295  0.2596  0.1762  0.0975
    1DIPC   C4B19248  28.673  29.488   4.130 -0.1151 -0.1821  0.0905
    1DIPC   NC319249   9.147  21.832   2.071 -0.0417 -0.0323 -0.1355
    1DIPC   PO419250   8.957  21.499   2.042 -0.0929  0.0623  0.0673
    1DIPC   GL119251   8.987  21.766   2.519  0.0258 -0.1922 -0.0464
    1DIPC   GL219252   9.319  21.729   2.559 -0.0645  0.3129  0.0844
    1DIPC   C1A19253   8.833  21.902   2.902  0.3067 -0.1112 -0.1307
    1DIPC   D2A19254   8.498  22.052   3.250 -0.2449 -0.1675  0.1118
    1DIPC   D3A19255   8.647  21.954   3.675 -0.0079 -0.0492  0.1720
    1DIPC   C4A19256   8.577  21.507   3.705 -0.0478  0.1437 -0.1532
    1DIPC   C1B19257   9.300  21.880   2.986 -0.1088  0.1445  0.2890
    1DIPC   D2B19258   9.180  22.138   3.340  0.5970 -0.1877 -0.2518
    1DIPC   D3B19259   9.302  21.940   3.735  0.3908 -0.1231 -0.2327
    1DIPC   C4B19260   9.704  22.075   3.739 -0.1541  0.1933  0.1703
    1DIPC   NC319261   5.011  14.367   2.592  0.2871 -0.1273 -0.0959
    1DIPC   PO419262   5.149  14.748   2.768 -0.2476  0.1259 -0.0898
    1DIPC   GL119263   5.110  14.860   3.215 -0.4640  0.2035  0.0761
    1DIPC   GL219264   4.817  15.016   3.239 -0.2002  0.0855 -0.0662
    1DIPC   C1A19265   5.235  14.771   3.592  0.1509 -0.0079  0.0097
    1DIPC   D2A19266   5.260  14.557   3.981 -0.0441  0.1100  0.0836
    1DIPC   D3A19267   5.577  14.638   4.194  0.0676 -0.2555 -0.1898
    1DIPC   C4A19268   5.620  14.944   4.427  0.1617  0.1357  0.2813
    1DIPC   C1B19269   4.847  15.210   3.567 -0.0180  0.0746  0.0632
    1DIPC   D2B19270   4.654  15.462   3.848 -0.3251  0.2758  0.1176
    1DIPC   D3B19271   4.787  15.303   4.287 -0.1360  0.2300  0.2647
    1DIPC   C4B19272   5.096  15.171   4.561  0.1099  0.1915  0.0458
    1DIPC   NC319273  12.417  15.513   2.434 -0.0952 -0.0161  0.3320
    1DIPC   PO419274  12.829  15.512   2.698 -0.1360 -0.4778  0.3961
    1DIPC   GL119275  12.562  15.602   2.958 -0.1013  0.2256  0.0083
    1DIPC   GL219276  12.258  15.602   2.948 -0.1002 -0.0086  0.2327
    1DIPC   C1A19277  12.369  15.488   3.390  0.3807 -0.2039  0.0965
    1DIPC   D2A19278  12.134  15.396   3.812  0.2411 -0.2787 -0.1419
    1DIPC   D3A19279  11.723  15.435   3.995 -0.1085 -0.0928 -0.0961
    1DIPC   C4A19280  11.891  15.632   4.393  0.0990  0.2814  0.1281
    1DIPC   C1B19281  12.117  15.218   3.093  0.0482  0.3111 -0.1644
    1DIPC   D2B19282  12.075  14.935   3.437  0.0854  0.0197 -0.3165
    1DIPC   D3B19283  12.242  14.492   3.348 -0.2325  0.0653  0.0445
    1DIPC   C4B19284  11.946  14.159   3.319 -0.0020 -0.0038  0.0793
    1DIPC   NC319285   3.996  27.538   2.145  0.0900  0.1914  0.2389
    1DIPC   PO419286   4.407  27.749   2.308 -0.2424 -0.2389  0.0501
    1DIPC   GL119287   4.427  27.857   2.743  0.0152 -0.1557  0.0469
    1DIPC   GL219288   4.627  28.042   2.954  0.0183 -0.0093 -0.0387
    1DIPC   C1A19289   4.110  27.728   2.984 -0.2718 -0.1932  0.1379
    1DIPC   D2A19290   3.864  27.607   3.412  0.0082 -0.1060 -0.1464
    1DIPC   D3A19291   3.804  27.619   3.833  0.0952  0.3253  0.1202
    1DIPC   C4A19292   3.517  27.942   3.983  0.1745 -0.1084 -0.0973
    1DIPC   C1B19293   4.667  27.987   3.364  0.2964 -0.0430 -0.2455
    1DIPC   D2B19294   4.723  27.962   3.820  0.1810  0.4676  0.0979
    1DIPC   D3B19295   5.112  27.805   3.537  0.0073  0.1622 -0.1797
    1DIPC   C4B19296   5.440  27.497   3.345  0.1626  0.1062  0.1139
    1DIPC   NC319297  17.348  23.895   0.875  0.2676  0.1502 -0.1337
    1DIPC   PO419298  17.518  23.531   1.178 -0.2217 -0.1580  0.0442
    1DIPC   GL119299  17.582  23.340   1.631  0.3887 -0.3269 -0.0929
    1DIPC   GL219300  17.756  23.513   1.860  0.0019 -0.2670 -0.1161
    1DIPC   C1A19301  17.541  22.973   1.996 -0.1851  0.0215 -0.0312
    1DIPC   D2A19302  17.541  23.039   2.532  0.3221 -0.2062  0.1655
    1DIPC   D3A19303  17.596  23.504   2.684 -0.0020  0.3618  0.0293
    1DIPC   C4A19304  17.541  23.909   2.418 -0.3047 -0.1421 -0.0760
    1DIPC   C1B19305  17.486  23.443   2.166  0.1725  0.1233  0.1561
    1DIPC   D2B19306  17.082  23.565   2.509  0.1509  0.2016  0.1034
    1DIPC   D3B19307  16.635  23.442   2.415 -0.0263  0.2306 -0.2411
    1DIPC   C4B19308  16.220  23.358   2.740  0.4514  0.0662  0.0515
    1DIPC   NC319309  24.562   3.061   3.250 -0.2866 -0.2207 -0.0993
    1DIPC   PO419310  24.968   3.357   3.396  0.1480  0.0223  0.1138
    1DIPC   GL119311  25.201   3.246   3.732 -0.1959  0.0170  0.1650
    1DIPC   GL219312  25.553   3.239   3.698 -0.1563  0.4714  0.0367
    1DIPC   C1A19313  25.160   3.206   4.208  0.1229  0.2525  0.0539
    1DIPC   D2A19314  25.082   2.846   4.480  0.0089 -0.2107 -0.2996
    1DIPC   D3A19315  24.996   3.024   4.850 -0.1779  0.2276  0.0590
    1DIPC   C4A19316  24.969   2.783   5.150 -0.0208 -0.0734  0.2611
    1DIPC   C1B19317  25.726   3.327   4.101  0.0523  0.2269 -0.4118
    1DIPC   D2B19318  26.054   3.274   4.413  0.0472 -0.2671  0.2516
    1DIPC   D3B19319  25.843   3.243   4.830  0.2457 -0.1103 -0.1230
    1DIPC   C4B19320  25.697   3.673   5.052  0.0805  0.0139  0.2057
    1DIPC   NC319321  28.812   0.790   2.634 -0.1088 -0.0136  0.0102
    1DIPC   PO419322  28.540   0.447   2.589 -0.2717  0.1852  0.2655
    1DIPC   GL119323  28.518   0.492   2.986 -0.1720 -0.3335 -0.1294
    1DIPC   GL219324  28.731   0.739   3.099  0.1762 -0.0984 -0.2133
    1DIPC   C1A19325  28.535   0.375   3.455 -0.1940 -0.2019  0.0952
    1DIPC   D2A19326  28.253   0.156   3.790 -0.4717 -0.0818 -0.0095
    1DIPC   D3A19327  28.628   0.221   3.966 -0.1966  0.2389  0.2543
    1DIPC   C4A19328  28.924   0.018   4.313  0.3151  0.1562  0.0316
    1DIPC   C1B19329  28.352   0.790   3.374 -0.1781 -0.5765 -0.1173
    1DIPC   D2B19330  28.084   0.990   3.696  0.1603  0.1763 -0.1836
    1DIPC   D3B19331  28.279   1.135   4.141 -0.0769 -0.0363  0.0833
    1DIPC   C4B19332  28.288   0.969   4.642 -0.0088  0.0190  0.1547
    1DIPC   NC319333   5.821  24.651   2.303  0.1921 -0.2009  0.1182
    1DIPC   PO419334   5.710  24.275   2.261  0.2911  0.0363 -0.1503
    1DIPC   GL119335   6.077  24.315   2.600  0.1800 -0.0214 -0.2385
    1DIPC   GL219336   5.986  24.005   2.802 -0.3988  0.1981  0.0526
    1DIPC   C1A19337   6.130  24.447   3.013  0.2304 -0.2163  0.0564
    1DIPC   D2A19338   5.926  24.618   3.296  0.0956  0.1718 -0.4007
    1DIPC   D3A19339   6.114  24.103   3.341  0.0944 -0.0037  0.1932
    1DIPC   C4A19340   6.368  23.795   3.237  0.1449 -0.2228  0.2023
    1DIPC   C1B19341   5.776  23.766   3.167  0.1896  0.1413  0.1173
    1DIPC   D2B19342   5.584  23.763   3.551 -0.0592 -0.0522 -0.2281
    1DIPC   D3B19343   5.658  23.669   4.066 -0.0060 -0.0070 -0.1189
    1DIPC   C4B19344   5.512  23.293   4.296  0.1618 -0.2486  0.0281
    1DIPC   NC319345  27.650  22.465   2.687  0.3749  0.2093  0.0446
    1DIPC   PO419346  27.841  22.111   2.941 -0.0040 -0.1880 -0.2250
    1DIPC   GL119347  27.916  22.245   3.330 -0.1165 -0.3160 -0.2691
    1DIPC   GL219348  28.293  22.300   3.348  0.2410  0.0792  0.0246
    1DIPC   C1A19349  27.980  22.326   3.722  0.0694  0.0019 -0.0583
    1DIPC   D2A19350  28.129  22.539   4.175 -0.0214  0.0404 -0.2402
    1DIPC   D3A19351  28.350  22.301   4.517 -0.2368 -0.0590  0.2209
    1DIPC   C4A19352  28.567  22.382   4.918  0.0136  0.0930 -0.0747
    1DIPC   C1B19353  28.113  22.719   3.380  0.2272 -0.1862 -0.0397
    1DIPC   D2B19354  28.123  23.144   3.505 -0.1487 -0.1163 -0.1440
    1DIPC   D3B19355  28.187  23.110   3.947 -0.0529 -0.1758 -0.0639
    1DIPC   C4B19356  28.027  23.366   4.324 -0.0896 -0.2398  0.2691
    1DIPC   NC319357  11.356  22.378   1.761 -0.0892  0.0449  0.1646
    1DIPC   PO419358  11.456  21.989   1.935 -0.2539  0.0773 -0.3321
    1DIPC   GL119359  11.796  22.080   2.298  0.2865 -0.0667 -0.0397
    1DIPC   GL219360  12.025  21.853   2.486 -0.0504  0.0651 -0.0220
    1DIPC   C1A19361  11.588  21.980   2.706  0.1722  0.2392  0.2791
    1DIPC   D2A19362  11.514  21.724   3.110 -0.0361  0.1441 -0.2364
    1DIPC   D3A19363  11.731  22.183   3.173  0.1925 -0.0529 -0.0315
    1DIPC   C4A19364  11.848  22.408   2.779  0.0321 -0.2098 -0.0321
    1DIPC   C1B19365  12.031  21.909   2.872  0.1320 -0.2047 -0.0393
    1DIPC   D2B19366  12.087  21.741   3.233 -0.0957  0.1881 -0.1028
    1DIPC   D3B19367  11.819  21.855   3.565 -0.4517  0.0093  0.3062
    1DIPC   C4B19368  11.499  21.651   3.751 -0.0175 -0.2938  0.0698
    1DIPC   NC319369   7.811  12.593   2.517 -0.1915 -0.0159 -0.0302
    1DIPC   PO419370   8.167  12.356   2.519 -0.0576 -0.1682  0.0439
    1DIPC   GL119371   8.191  12.517   2.877  0.2782 -0.0445  0.2691
    1DIPC   GL219372   7.821  12.442   2.981 -0.0991  0.1847 -0.1531
    1DIPC   C1A19373   8.159  12.498   3.362 -0.1515  0.2227 -0.5154
    1DIPC   D2A19374   7.967  12.549   3.734  0.1415  0.0747 -0.0386
    1DIPC   D3A19375   7.642  12.465   4.032  0.1856 -0.0093 -0.0665
    1DIPC   C4A19376   7.617  12.043   4.237  0.0855  0.1155 -0.4734
    1DIPC   C1B19377   7.696  12.679   3.315 -0.1764 -0.1035 -0.0690
    1DIPC   D2B19378   7.617  12.925   3.651  0.1678  0.1703 -0.0455
    1DIPC   D3B19379   7.826  13.032   4.040 -0.1997  0.2359  0.1168
    1DIPC   C4B19380   7.591  13.249   4.341 -0.0045  0.1285  0.2916
    1DIPC   NC319381  27.723   7.105   2.946 -0.1405  0.0958 -0.1719
    1DIPC   PO419382  27.791   7.531   2.813  0.4479 -0.0642 -0.1052
    1DIPC   GL119383  27.887   7.565   3.243 -0.1588 -0.0627 -0.4189
    1DIPC   GL219384  27.891   7.275   3.472  0.1245 -0.1232 -0.0575
    1DIPC   C1A19385  27.949   7.840   3.492  0.1723  0.0481 -0.2264
    1DIPC   D2A19386  28.185   8.125   3.739  0.0595 -0.0463 -0.1337
    1DIPC   D3A19387  28.222   7.740   4.006  0.1338 -0.1601 -0.0378
    1DIPC   C4A19388  28.222   7.653   4.367 -0.4955 -0.0589 -0.0785
    1DIPC   C1B19389  28.315   7.470   3.549  0.0719  0.0637 -0.0181
    1DIPC   D2B19390  28.578   7.908   3.526 -0.2009  0.1210  0.2077
    1DIPC   D3B19391  28.684   8.124   3.856 -0.0224  0.3872  0.2084
    1DIPC   C4B19392  28.398   8.155   4.213 -0.0844  0.0611  0.2095
    1DIPC   NC319393  20.092   3.681   3.661  0.1214  0.2859 -0.3634
    1DIPC   PO419394  19.732   3.560   3.924 -0.2524  0.0221 -0.0340
    1DIPC   GL119395  19.734   3.679   4.309 -0.0357 -0.2228  0.1146
    1DIPC   GL219396  19.510   3.574   4.521  0.1141 -0.3788 -0.0459
    1DIPC   C1A19397  20.056   3.552   4.619 -0.1507  0.0026 -0.1194
    1DIPC   D2A19398  20.038   3.475   5.086  0.1033 -0.0989  0.0293
    1DIPC   D3A19399  19.913   3.785   5.377  0.0261  0.0226  0.3057
    1DIPC   C4A19400  19.576   3.689   5.642  0.2238  0.1238 -0.1956
    1DIPC   C1B19401  19.662   3.244   4.798  0.3025 -0.2160 -0.1987
    1DIPC   D2B19402  19.769   3.143   5.259 -0.3464 -0.1645 -0.3545
    1DIPC   D3B19403  19.880   3.303   5.568  0.2565  0.2799 -0.1535
    1DIPC   C4B19404  20.255   3.351   5.584 -0.0543  0.1676 -0.1899
    1DIPC   NC319405  15.735  19.177   2.223  0.0350 -0.2437 -0.2011
    1DIPC   PO419406  15.797  19.646   2.085 -0.3556 -0.1924 -0.0814
    1DIPC   GL119407  15.591  19.580   2.444  0.3432 -0.2445  0.0306
    1DIPC   GL219408  15.279  19.570   2.411 -0.0361 -0.1769  0.0079
    1DIPC   C1A19409  15.777  19.540   2.796  0.0808  0.0097  0.0705
    1DIPC   D2A19410  16.159  19.457   3.114  0.0715 -0.1221 -0.2377
    1DIPC   D3A19411  15.914  19.229   3.261 -0.1977 -0.2652  0.0486
    1DIPC   C4A19412  15.899  18.870   3.420  0.0132 -0.0644  0.2443
    1DIPC   C1B19413  15.242  19.614   2.859  0.0883 -0.0117  0.1907
    1DIPC   D2B19414  15.090  19.513   3.416 -0.4217 -0.1323 -0.0383
    1DIPC   D3B19415  15.493  19.586   3.273 -0.2367 -0.1097  0.1630
    1DIPC   C4B19416  15.672  19.933   3.047 -0.1283  0.0973 -0.1653
    1DIPC   NC319417   7.831   3.241   3.481 -0.1078  0.2321  0.0621
    1DIPC   PO419418   7.905   2.855   3.410 -0.2298 -0.0225  0.1512
    1DIPC   GL119419   7.966   2.923   3.825  0.3758 -0.1744  0.0134
    1DIPC   GL219420   8.012   3.196   3.930  0.0667 -0.1866 -0.4116
    1DIPC   C1A19421   7.919   2.867   4.320 -0.0247 -0.0455 -0.0714
    1DIPC   D2A19422   7.807   2.670   4.632  0.1454  0.1129 -0.2253
    1DIPC   D3A19423   7.727   2.346   4.352  0.1167 -0.0801 -0.2746
    1DIPC   C4A19424   7.562   2.598   4.102 -0.0092  0.0908 -0.1503
    1DIPC   C1B19425   7.524   3.206   4.092  0.0096 -0.2524  0.0005
    1DIPC   D2B19426   7.403   2.997   4.431 -0.2778  0.1039  0.0469
    1DIPC   D3B19427   7.501   3.089   4.753  0.2221  0.2287  0.0240
    1DIPC   C4B19428   7.857   3.099   4.954 -0.4254 -0.0391  0.1893
    1DIPC   NC319429   5.543  14.946   2.590  0.0803  0.1034  0.0023
    1DIPC   PO419430   6.052  14.878   2.671  0.5227  0.3109  0.0611
    1DIPC   GL119431   6.226  15.028   2.947 -0.1718 -0.2272  0.0864
    1DIPC   GL219432   6.550  14.927   3.130  0.0872 -0.0731  0.0702
    1DIPC   C1A19433   6.248  15.389   3.096 -0.0738  0.3247 -0.1664
    1DIPC   D2A19434   6.496  15.705   3.239 -0.0952  0.1244  0.1007
    1DIPC   D3A19435   6.413  15.962   3.623  0.0893  0.0237  0.0488
    1DIPC   C4A19436   5.946  15.983   3.826  0.1235 -0.1140  0.1959
    1DIPC   C1B19437   6.422  14.630   3.370 -0.3039 -0.1032 -0.0273
    1DIPC   D2B19438   6.519  14.475   3.829 -0.3255  0.0328  0.0717
    1DIPC   D3B19439   6.890  14.718   4.064 -0.0457  0.1635  0.1180
    1DIPC   C4B19440   6.912  14.712   4.469 -0.1419  0.3052  0.0812
    1DIPC   NC319441  27.887  17.827   2.600  0.5252 -0.2940 -0.0439
    1DIPC   PO419442  27.649  17.499   2.687  0.3710  0.1977  0.1414
    1DIPC   GL119443  27.548  17.786   2.993 -0.1984  0.1508 -0.0366
    1DIPC   GL219444  27.267  17.694   3.123 -0.0191  0.2928  0.2914
    1DIPC   C1A19445  27.390  18.114   3.323 -0.1575  0.0769  0.0184
    1DIPC   D2A19446  27.016  18.272   3.417 -0.2771  0.3048 -0.2447
    1DIPC   D3A19447  26.916  17.929   3.599 -0.4613  0.1335  0.1911
    1DIPC   C4A19448  26.909  17.536   3.357  0.0632  0.2434 -0.0145
    1DIPC   C1B19449  27.373  17.635   3.533 -0.1870 -0.0232 -0.2132
    1DIPC   D2B19450  27.166  17.603   3.871 -0.1105  0.0923  0.0456
    1DIPC   D3B19451  27.319  17.540   4.170 -0.1812 -0.3351 -0.1984
    1DIPC   C4B19452  27.470  17.846   4.460 -0.1326 -0.2965  0.1826
    1DIPC   NC319453   8.506   4.459   3.022  0.2056  0.3891  0.1337
    1DIPC   PO419454   8.339   4.877   3.205  0.3749  0.0351 -0.0947
    1DIPC   GL119455   8.320   5.127   3.604  0.0693  0.1851  0.0231
    1DIPC   GL219456   8.237   4.872   3.790  0.0710 -0.1236 -0.0574
    1DIPC   C1A19457   8.256   5.419   3.914 -0.0267 -0.0283  0.3241
    1DIPC   D2A19458   8.201   5.844   4.039 -0.3016  0.2008  0.3893
    1DIPC   D3A19459   8.004   5.805   4.398  0.4657  0.1639 -0.0249
    1DIPC   C4A19460   8.072   5.493   4.706  0.0169 -0.0375 -0.1577
    1DIPC   C1B19461   8.223   4.371   3.824  0.0487 -0.1033  0.0864
    1DIPC   D2B19462   8.179   3.982   4.003  0.0517 -0.0664  0.3192
    1DIPC   D3B19463   8.204   3.596   4.387 -0.1028 -0.2717  0.1244
    1DIPC   C4B19464   7.916   3.328   4.436  0.2523 -0.1035 -0.1465
    1DIPC   NC319465  15.241  12.028   2.553  0.0607 -0.1517  0.1945
    1DIPC   PO419466  15.626  11.762   2.388 -0.0339 -0.1547 -0.0086
    1DIPC   GL119467  15.592  11.813   2.870 -0.3734  0.0052 -0.0290
    1DIPC   GL219468  15.875  11.955   2.972 -0.1117  0.1972 -0.4166
    1DIPC   C1A19469  15.489  11.975   3.305  0.1937 -0.1129  0.0743
    1DIPC   D2A19470  15.345  12.350   3.478  0.0142 -0.2632  0.1337
    1DIPC   D3A19471  15.319  12.107   3.832  0.0132  0.0734  0.1037
    1DIPC   C4A19472  15.406  12.017   4.260  0.1440 -0.0795 -0.0675
    1DIPC   C1B19473  15.679  12.287   2.989 -0.1945  0.3575 -0.2294
    1DIPC   D2B19474  15.198  12.435   2.938  0.3761  0.0495 -0.2639
    1DIPC   D3B19475  15.083  11.999   3.002 -0.0539 -0.0368 -0.2130
    1DIPC   C4B19476  14.724  11.689   3.117  0.2663  0.3580 -0.1680
    1DIPC   NC319477  24.276  22.385   3.081 -0.0197 -0.2111  0.2266
    1DIPC   PO419478  23.805  22.339   2.999  0.0588 -0.2572  0.0089
    1DIPC   GL119479  23.909  22.145   3.355 -0.0905  0.0128 -0.0499
    1DIPC   GL219480  24.101  21.909   3.411  0.2559  0.1056  0.2562
    1DIPC   C1A19481  23.820  22.164   3.791 -0.1037  0.1741 -0.3043
    1DIPC   D2A19482  23.589  22.401   4.033 -0.2150  0.3249  0.3111
    1DIPC   D3A19483  23.835  22.362   4.387 -0.0611 -0.1014 -0.1195
    1DIPC   C4A19484  23.692  22.421   4.745  0.1536  0.0253  0.0445
    1DIPC   C1B19485  24.231  21.711   3.883  0.3164  0.0318  0.1635
    1DIPC   D2B19486  24.089  21.481   4.275  0.0901 -0.1450 -0.1626
    1DIPC   D3B19487  24.345  21.653   4.450  0.1712  0.3360  0.0680
    1DIPC   C4B19488  24.496  21.507   4.791 -0.2730 -0.0203  0.2168
    1DIPC   NC319489  24.915   5.527   3.742 -0.0611  0.0346 -0.0080
    1DIPC   PO419490  24.959   5.754   3.382  0.2707 -0.1420  0.0822
    1DIPC   GL119491  25.337   5.726   3.521  0.2144  0.4123 -0.0495
    1DIPC   GL219492  25.460   6.045   3.548  0.0090  0.0511  0.0177
    1DIPC   C1A19493  25.533   5.683   3.876  0.1108 -0.1447  0.0039
    1DIPC   D2A19494  25.335   5.681   4.221 -0.0435 -0.0375  0.0463
    1DIPC   D3A19495  25.366   5.809   4.695  0.1817  0.0518  0.0183
    1DIPC   C4A19496  25.238   6.068   4.914  0.0421  0.0423  0.1258
    1DIPC   C1B19497  25.785   6.239   3.766 -0.0974  0.2558  0.2192
    1DIPC   D2B19498  25.868   6.577   3.841  0.0797 -0.0982  0.1244
    1DIPC   D3B19499  26.059   6.481   4.265  0.2470  0.0113  0.0800
    1DIPC   C4B19500  26.103   6.508   4.687  0.3949 -0.1993 -0.0154
    1DIPC   NC319501   1.374  23.791   2.104  0.0921 -0.1599 -0.3031
    1DIPC   PO419502   1.746  23.702   2.305 -0.4101 -0.3123 -0.0534
    1DIPC   GL119503   1.860  23.890   2.712  0.2902 -0.0279 -0.0123
    1DIPC   GL219504   1.910  23.646   2.845 -0.1259 -0.1296  0.1160
    1DIPC   C1A19505   1.867  24.188   3.069 -0.2792 -0.2883 -0.0413
    1DIPC   D2A19506   1.655  24.542   3.281  0.2716  0.0519  0.6419
    1DIPC   D3A19507   1.684  24.967   3.115  0.2712 -0.0719  0.1472
    1DIPC   C4A19508   1.867  25.193   2.615  0.0830 -0.1734 -0.2194
    1DIPC   C1B19509   1.706  23.771   3.267  0.3378 -0.0045  0.4416
    1DIPC   D2B19510   1.551  23.997   3.504 -0.2024  0.0223 -0.3158
    1DIPC   D3B19511   1.561  24.146   3.841  0.1435  0.3386 -0.2926
    1DIPC   C4B19512   1.289  24.411   4.173  0.1006  0.0548 -0.0434
    1DIPC   NC319513  25.896  24.439   3.083  0.2840 -0.0252 -0.3904
    1DIPC   PO419514  25.978  24.854   3.071 -0.0014  0.1110  0.4479
    1DIPC   GL119515  25.975  24.858   3.459 -0.0697  0.0353  0.1395
    1DIPC   GL219516  26.053  24.599   3.641  0.1388 -0.0252 -0.0416
    1DIPC   C1A19517  26.077  25.185   3.718  0.1692 -0.1698  0.0959
    1DIPC   D2A19518  26.151  25.290   4.079  0.2650  0.0565  0.2939
    1DIPC   D3A19519  26.625  25.307   4.211 -0.4460  0.1281 -0.0019
    1DIPC   C4A19520  26.910  25.199   4.585  0.1829 -0.0656 -0.4410
    1DIPC   C1B19521  25.611  24.710   3.759 -0.0093 -0.2063 -0.2951
    1DIPC   D2B19522  25.180  24.806   3.700  0.1855 -0.1925 -0.0728
    1DIPC   D3B19523  25.224  24.415   3.921  0.1505  0.2209  0.2843
    1DIPC   C4B19524  25.257  24.020   4.171  0.2037 -0.1914  0.2728
    1DIPC   NC319525  16.186  23.599   1.575 -0.0739  0.0877 -0.1865
    1DIPC   PO419526  15.750  23.708   1.483 -0.1190 -0.1987 -0.1433
    1DIPC   GL119527  15.581  23.531   1.843  0.1109  0.1518  0.1531
    1DIPC   GL219528  15.866  23.540   1.958 -0.0155 -0.0947 -0.0989
    1DIPC   C1A19529  15.448  23.392   2.310 -0.0535  0.0034  0.2427
    1DIPC   D2A19530  15.604  23.379   2.764  0.1468 -0.2440 -0.2364
    1DIPC   D3A19531  15.900  23.000   2.826 -0.0738  0.1640 -0.1860
    1DIPC   C4A19532  15.997  22.489   3.118  0.1141  0.2438  0.0110
    1DIPC   C1B19533  15.994  23.767   2.329 -0.0364  0.1323 -0.0910
    1DIPC   D2B19534  16.271  23.847   2.602 -0.1487  0.2304  0.0686
    1DIPC   D3B19535  16.622  23.734   2.829  0.1191  0.0357  0.0045
    1DIPC   C4B19536  16.680  23.442   3.241  0.1683 -0.1390 -0.2886
    1DIPC   NC319537  18.835   2.816   4.190 -0.4650  0.3604 -0.0137
    1DIPC   PO419538  19.018   2.446   4.056 -0.0780  0.1677 -0.3416
    1DIPC   GL119539  18.969   2.390   4.474  0.0013 -0.0440  0.4674
    1DIPC   GL219540  19.262   2.488   4.611  0.0264 -0.1162 -0.0796
    1DIPC   C1A19541  18.738   2.340   4.794  0.0031 -0.1116 -0.0896
    1DIPC   D2A19542  18.503   1.959   4.886 -0.2068 -0.0372 -0.0295
    1DIPC   D3A19543  18.366   2.175   5.317 -0.1554 -0.0933  0.0134
    1DIPC   C4A19544  18.619   2.145   5.697  0.1226  0.1359 -0.0684
    1DIPC   C1B19545  19.312   2.358   5.006  0.1103 -0.0082  0.2795
    1DIPC   D2B19546  18.923   2.170   5.221  0.0111 -0.0368  0.0342
    1DIPC   D3B19547  19.105   1.927   5.493 -0.1507 -0.0753  0.1163
    1DIPC   C4B19548  19.576   1.832   5.774 -0.0613  0.0926  0.2877
    1DIPC   NC319549  27.396  19.279   2.756 -0.2332  0.0652  0.0288
    1DIPC   PO419550  27.605  18.992   3.062 -0.0441  0.0949  0.0852
    1DIPC   GL119551  27.469  18.963   3.515 -0.1431  0.1841  0.0480
    1DIPC   GL219552  27.180  18.948   3.533 -0.1861 -0.0055  0.2251
    1DIPC   C1A19553  27.452  18.544   3.675 -0.1616  0.0902  0.3411
    1DIPC   D2A19554  27.326  18.096   3.871  0.0024  0.0933  0.0053
    1DIPC   D3A19555  27.165  18.136   4.261  0.0127 -0.0982 -0.1082
    1DIPC   C4A19556  26.937  17.837   4.330 -0.0843  0.1489  0.0834
    1DIPC   C1B19557  26.853  18.688   3.679 -0.0499 -0.0792  0.1269
    1DIPC   D2B19558  26.805  18.315   3.849 -0.1859  0.2990 -0.2033
    1DIPC   D3B19559  26.466  18.282   4.186  0.2680 -0.2223 -0.1341
    1DIPC   C4B19560  26.040  18.170   4.130 -0.2232  0.1383 -0.1351
    1DIPC   NC319561  29.211  27.879   2.604 -0.0192 -0.1393  0.1485
    1DIPC   PO419562  29.509  28.025   2.301  0.0375  0.0169  0.0112
    1DIPC   GL119563  29.627  28.161   2.684  0.0630  0.1140 -0.0140
    1DIPC   GL219564  29.680  27.800   2.800 -0.0543  0.0678 -0.0657
    1DIPC   C1A19565   0.200  28.090   2.864 -0.1511  0.0213  0.3387
    1DIPC   D2A19566   0.549  28.225   2.524 -0.1627 -0.0537  0.1730
    1DIPC   D3A19567   0.950  28.483   2.653 -0.0835 -0.1993  0.1472
    1DIPC   C4A19568   1.233  28.206   2.832  0.2659  0.0020 -0.0584
    1DIPC   C1B19569   0.124  27.608   3.069  0.0070 -0.0747 -0.0189
    1DIPC   D2B19570   0.485  27.361   3.185 -0.2315 -0.0960 -0.1749
    1DIPC   D3B19571   0.522  27.531   3.647  0.1468  0.1250 -0.1724
    1DIPC   C4B19572   0.319  27.411   3.920 -0.0401  0.0062 -0.0103
    1DIPC   NC319573  18.822  26.350   2.061 -0.0621  0.0358 -0.2023
    1DIPC   PO419574  19.198  26.487   2.236 -0.1751  0.0807  0.2704
    1DIPC   GL119575  19.196  26.033   2.280  0.1978  0.1106 -0.1454
    1DIPC   GL219576  19.029  25.782   2.477 -0.3787 -0.2647 -0.1363
    1DIPC   C1A19577  19.566  25.802   2.460  0.3165  0.1051  0.0230
    1DIPC   D2A19578  19.866  25.686   2.758  0.2409  0.0538 -0.1938
    1DIPC   D3A19579  19.924  26.127   2.736 -0.0274  0.1902  0.0628
    1DIPC   C4A19580  19.742  26.254   3.143  0.0782  0.0687 -0.3109
    1DIPC   C1B19581  18.892  25.686   2.891 -0.0116  0.1445 -0.0848
    1DIPC   D2B19582  18.967  25.566   3.354  0.2326 -0.1227  0.0559
    1DIPC   D3B19583  18.597  25.453   3.571 -0.0287  0.1855  0.2877
    1DIPC   C4B19584  18.177  25.232   3.365 -0.1784  0.2143  0.1602
    1DIPC   NC319585  27.050  29.770   2.813  0.3101 -0.0425 -0.0567
    1DIPC   PO419586  27.435  29.803   2.931 -0.1153 -0.2902 -0.1742
    1DIPC   GL119587  27.514  29.730   3.336  0.2148  0.4424  0.1717
    1DIPC   GL219588  27.249  29.593   3.327  0.1113  0.1204 -0.1158
    1DIPC   C1A19589  27.702   0.113   3.678  0.0587 -0.0911 -0.0869
    1DIPC   D2A19590  27.879   0.204   4.086  0.0828 -0.1563  0.1436
    1DIPC   D3A19591  28.310  29.818   4.299 -0.1663 -0.1042 -0.0326
    1DIPC   C4A19592  28.426   0.111   4.631  0.1739 -0.0877 -0.3264
    1DIPC   C1B19593  27.306  29.436   3.712  0.0184 -0.1806 -0.0521
    1DIPC   D2B19594  27.393  29.398   4.214  0.1065 -0.0799 -0.1732
    1DIPC   D3B19595  27.687  29.599   4.419  0.1998 -0.1570 -0.2536
    1DIPC   C4B19596  27.712  29.381   4.814  0.1141 -0.0570  0.0436
    1DIPC   NC319597   3.921  24.869   2.284  0.0073 -0.2073  0.0500
    1DIPC   PO419598   3.776  24.395   2.065  0.3487  0.0715 -0.0379
    1DIPC   GL119599   3.725  24.087   2.411 -0.1168 -0.0924  0.2028
    1DIPC   GL219600   4.029  24.005   2.608  0.0643  0.2026 -0.2605
    1DIPC   C1A19601   3.600  24.156   2.913  0.0630 -0.0351 -0.0006
    1DIPC   D2A19602   3.256  23.766   3.124  0.0084  0.3159 -0.1200
    1DIPC   D3A19603   2.816  24.029   3.204 -0.0545  0.3156 -0.1007
    1DIPC   C4A19604   2.630  24.086   3.630 -0.2187  0.4607 -0.0877
    1DIPC   C1B19605   4.084  24.207   3.025 -0.0869  0.1073 -0.3261
    1DIPC   D2B19606   4.066  24.316   3.514  0.0370 -0.1570  0.4284
    1DIPC   D3B19607   4.230  23.976   3.634 -0.2213 -0.3390 -0.3384
    1DIPC   C4B19608   4.139  23.699   3.914 -0.1099  0.2312  0.0208
    1DIPC   NC319609  13.101  28.184   3.307 -0.1039  0.0217 -0.1198
    1DIPC   PO419610  13.423  28.425   3.325  0.0964 -0.0715  0.1313
    1DIPC   GL119611  13.909  28.424   3.458  0.0631 -0.0492  0.1839
    1DIPC   GL219612  14.251  28.646   3.450  0.1122  0.0580 -0.3676
    1DIPC   C1A19613  14.171  28.183   3.688 -0.3556 -0.0994 -0.1493
    1DIPC   D2A19614  14.547  28.417   3.823  0.0950 -0.0724  0.0821
    1DIPC   D3A19615  14.561  28.775   4.116 -0.0735  0.1495 -0.3849
    1DIPC   C4A19616  14.281  29.047   3.808  0.1287 -0.0288 -0.0059
    1DIPC   C1B19617  14.643  28.857   3.402 -0.1253  0.1087 -0.4622
    1DIPC   D2B19618  15.041  28.884   3.666  0.3881  0.1544  0.0015
    1DIPC   D3B19619  15.227  28.484   3.545  0.0574  0.0863 -0.2343
    1DIPC   C4B19620  15.473  28.203   3.481  0.0751  0.2605 -0.1101
    1DIPC   NC319621  11.310  13.482   2.774  0.3599 -0.0937  0.2017
    1DIPC   PO419622  11.629  13.766   2.704  0.3588  0.0635 -0.0964
    1DIPC   GL119623  11.533  13.607   3.176  0.1218 -0.0428  0.2359
    1DIPC   GL219624  11.704  13.375   3.306  0.0365  0.1458  0.2011
    1DIPC   C1A19625  11.408  13.737   3.570 -0.0666 -0.2492  0.1379
    1DIPC   D2A19626  11.503  13.581   3.995 -0.3542 -0.0219 -0.2458
    1DIPC   D3A19627  11.858  13.630   4.231 -0.0830  0.2004  0.0892
    1DIPC   C4A19628  11.808  13.331   4.582 -0.0857  0.1190 -0.1796
    1DIPC   C1B19629  11.650  13.135   3.777  0.0422  0.2746  0.0791
    1DIPC   D2B19630  11.557  12.902   4.133  0.0643 -0.0618  0.3410
    1DIPC   D3B19631  11.895  12.838   4.391  0.0432 -0.0929 -0.1441
    1DIPC   C4B19632  11.940  12.438   4.691  0.3691  0.1285 -0.1671
    1DIPC   NC319633  10.807  24.754   1.786 -0.1186 -0.3087 -0.0117
    1DIPC   PO419634  10.852  24.303   1.858  0.0350 -0.2704  0.0355
    1DIPC   GL119635  10.744  24.546   2.272  0.0643  0.2433  0.0887
    1DIPC   GL219636  10.976  24.370   2.453  0.1045  0.3896  0.1013
    1DIPC   C1A19637  10.696  24.770   2.648  0.2436 -0.1887 -0.0581
    1DIPC   D2A19638  10.447  24.641   3.102 -0.2709 -0.0356 -0.2372
    1DIPC   D3A19639  10.473  24.867   3.436 -0.1549  0.2371  0.1934
    1DIPC   C4A19640  10.256  24.851   3.916  0.2644 -0.2933 -0.5130
    1DIPC   C1B19641  11.420  24.236   2.517 -0.3696 -0.1120  0.1081
    1DIPC   D2B19642  11.618  23.927   2.527  0.0517 -0.2967 -0.2381
    1DIPC   D3B19643  11.092  23.883   2.549  0.1128 -0.0393 -0.0900
    1DIPC   C4B19644  10.956  23.380   2.614 -0.0542  0.3608  0.0977
    1DIPC   NC319645   4.022   1.052   2.746  0.1812 -0.0801  0.1153
    1DIPC   PO419646   4.310   0.692   2.816  0.1536  0.1032  0.1431
    1DIPC   GL119647   4.561   0.300   2.832  0.0919 -0.1546 -0.2179
    1DIPC   GL219648   4.800   0.496   2.898  0.0167 -0.3487  0.0640
    1DIPC   C1A19649   4.393  29.734   2.820 -0.0547  0.4891 -0.0418
    1DIPC   D2A19650   4.345  29.387   3.098 -0.1015  0.1835 -0.0186
    1DIPC   D3A19651   4.114  29.674   3.348 -0.1869 -0.0969 -0.4120
    1DIPC   C4A19652   4.285   0.180   3.578 -0.0877 -0.3049 -0.3315
    1DIPC   C1B19653   5.035   0.098   2.955 -0.1063 -0.0106 -0.0821
    1DIPC   D2B19654   4.890  29.516   3.036  0.0670  0.1521  0.0347
    1DIPC   D3B19655   4.631  29.335   2.609 -0.1026  0.0460 -0.0003
    1DIPC   C4B19656   4.182  29.165   2.558 -0.1838  0.0003  0.3443
    1DIPC   NC319657   4.390   4.571   2.925 -0.0728  0.1618  0.3218
    1DIPC   PO419658   4.013   4.533   3.079  0.1143  0.2086 -0.0064
    1DIPC   GL119659   4.038   4.646   3.451  0.2014  0.0907 -0.2128
    1DIPC   GL219660   3.771   4.509   3.498 -0.0237  0.1466  0.1380
    1DIPC   C1A19661   3.937   5.047   3.714  0.0594  0.0888  0.1725
    1DIPC   D2A19662   4.136   5.317   4.012 -0.0475 -0.1043 -0.4831
    1DIPC   D3A19663   3.927   5.475   4.231 -0.2727  0.1252  0.1455
    1DIPC   C4A19664   3.785   5.852   4.158  0.0677  0.1667  0.3597
    1DIPC   C1B19665   3.908   4.579   3.921 -0.1158 -0.0201 -0.3842
    1DIPC   D2B19666   3.649   4.607   4.278  0.2906  0.0915  0.4087
    1DIPC   D3B19667   3.792   4.975   4.219 -0.3530 -0.2200 -0.0287
    1DIPC   C4B19668   3.698   5.112   4.585 -0.1191 -0.0710 -0.3466
    1DIPC   NC319669   9.646  26.585   1.994  0.1235  0.2481 -0.2007
    1DIPC   PO419670   9.370  26.399   2.292  0.1559 -0.0990  0.0108
    1DIPC   GL119671   9.327  26.409   2.745  0.2525  0.2408  0.4349
    1DIPC   GL219672   9.237  26.743   2.712  0.2308 -0.1768 -0.0848
    1DIPC   C1A19673   9.164  26.285   3.074 -0.1253 -0.3364  0.3240
    1DIPC   D2A19674   9.340  26.312   3.493 -0.2606 -0.1203 -0.0356
    1DIPC   D3A19675   8.900  26.147   3.475 -0.1643  0.2305 -0.0235
    1DIPC   C4A19676   8.683  26.008   3.163 -0.0661  0.2596  0.0449
    1DIPC   C1B19677   9.416  26.747   3.229 -0.0151  0.1316  0.0865
    1DIPC   D2B19678   9.271  26.815   3.603 -0.4060 -0.1923  0.1319
    1DIPC   D3B19679   9.660  26.732   3.762 -0.0370 -0.2298  0.2321
    1DIPC   C4B19680   9.681  26.349   3.978  0.2725 -0.0579  0.1698
    1DIPC   NC319681   0.871   2.957   3.034  0.1121  0.2245  0.1742
    1DIPC   PO419682   1.194   2.804   2.750 -0.0769  0.1797 -0.3749
    1DIPC   GL119683   1.163   2.654   3.249  0.0314  0.3062  0.1055
    1DIPC   GL219684   1.126   2.328   3.331  0.1714  0.1508  0.0916
    1DIPC   C1A19685   1.307   2.681   3.657 -0.2614  0.2216  0.0338
    1DIPC   D2A19686   1.185   2.881   3.926 -0.0113  0.3152  0.0705
    1DIPC   D3A19687   1.042   2.443   4.076 -0.2532 -0.2150 -0.2081
    1DIPC   C4A19688   0.694   2.130   4.232  0.0508 -0.0433  0.0348
    1DIPC   C1B19689   0.807   2.462   3.550  0.1435  0.3529  0.1427
    1DIPC   D2B19690   0.672   2.807   3.716 -0.2931  0.0298  0.3297
    1DIPC   D3B19691   0.632   2.696   4.194 -0.0602 -0.4361  0.1320
    1DIPC   C4B19692   0.442   2.482   4.478 -0.0418  0.0914 -0.1402
    1DIPC   NC319693  20.541  28.889   3.185  0.2602 -0.2293  0.2362
    1DIPC   PO419694  20.469  28.607   2.879  0.0295  0.0099  0.1906
    1DIPC   GL119695  20.740  28.420   3.205 -0.2378  0.1650 -0.1265
    1DIPC   GL219696  20.630  28.582   3.547 -0.1491 -0.3953  0.0767
    1DIPC   C1A19697  20.748  28.118   3.556 -0.0194 -0.0200  0.0318
    1DIPC   D2A19698  20.481  28.138   3.903 -0.0573 -0.0234  0.1210
    1DIPC   D3A19699  20.695  28.339   4.208  0.1252  0.2152 -0.0151
    1DIPC   C4A19700  20.451  28.364   4.725  0.2555  0.0726  0.0881
    1DIPC   C1B19701  20.921  28.570   3.765  0.0355  0.1043  0.2409
    1DIPC   D2B19702  21.227  28.603   4.120  0.1345  0.1042 -0.0867
    1DIPC   D3B19703  21.286  28.631   4.605  0.1046 -0.3552 -0.1041
    1DIPC   C4B19704  20.914  28.444   4.880  0.1437  0.1910 -0.1459
    1DIPC   NC319705  13.101  13.063   2.443 -0.1225  0.0592 -0.0229
    1DIPC   PO419706  12.946  12.558   2.610  0.0491  0.0920  0.0247
    1DIPC   GL119707  12.876  12.878   2.881  0.0103 -0.3298 -0.0836
    1DIPC   GL219708  13.208  13.185   2.957  0.1371 -0.0444 -0.0289
    1DIPC   C1A19709  12.734  12.984   3.285 -0.2832  0.3117  0.0907
    1DIPC   D2A19710  12.488  13.127   3.720 -0.4393  0.3795 -0.2927
    1DIPC   D3A19711  12.550  12.680   3.960  0.2100  0.3470 -0.2282
    1DIPC   C4A19712  12.284  12.450   4.276 -0.1020 -0.2223  0.0067
    1DIPC   C1B19713  13.416  13.412   3.241 -0.1432 -0.0898 -0.0487
    1DIPC   D2B19714  13.784  13.423   3.416 -0.0998  0.2578  0.1328
    1DIPC   D3B19715  13.602  13.379   3.864  0.0918 -0.2251 -0.0756
    1DIPC   C4B19716  13.567  13.720   4.224 -0.0445  0.1892 -0.0657
    1DIPC   NC319717  24.841  18.338   2.374 -0.0992  0.0517 -0.2444
    1DIPC   PO419718  24.885  18.450   2.758 -0.3958  0.2314  0.0238
    1DIPC   GL119719  24.814  18.573   3.194  0.2183  0.3025  0.1000
    1DIPC   GL219720  24.544  18.447   3.206  0.0899  0.1752 -0.0055
    1DIPC   C1A19721  24.910  18.507   3.582  0.0314  0.1510  0.4440
    1DIPC   D2A19722  24.815  18.390   3.973 -0.0755 -0.0403  0.2610
    1DIPC   D3A19723  24.861  17.984   4.263  0.0811 -0.0310 -0.0169
    1DIPC   C4A19724  24.524  17.721   4.302  0.3199  0.1113 -0.0575
    1DIPC   C1B19725  24.511  18.890   3.437  0.0974  0.0161  0.1184
    1DIPC   D2B19726  24.532  19.340   3.666  0.1951 -0.0979 -0.0447
    1DIPC   D3B19727  24.360  19.307   4.069 -0.0967  0.2280 -0.0589
    1DIPC   C4B19728  24.007  19.103   3.952 -0.3076  0.1751  0.3064
    1DIPC   NC319729  25.058   0.694   3.714  0.2180 -0.1653 -0.1209
    1DIPC   PO419730  24.653   0.889   3.821  0.2553  0.2198  0.3152
    1DIPC   GL119731  24.965   0.752   4.151 -0.0720  0.0303  0.0925
    1DIPC   GL219732  25.119   1.086   4.106 -0.0673  0.3235 -0.0637
    1DIPC   C1A19733  24.986   0.601   4.568  0.0189 -0.1482 -0.3299
    1DIPC   D2A19734  25.068   0.534   4.907 -0.1530  0.1496  0.2557
    1DIPC   D3A19735  25.392   0.781   4.854  0.1227 -0.4109 -0.0038
    1DIPC   C4A19736  25.669   0.995   5.184 -0.0722  0.3077 -0.2597
    1DIPC   C1B19737  25.323   1.063   4.433  0.2143 -0.2488  0.0421
    1DIPC   D2B19738  25.667   1.242   4.708  0.3041 -0.2814 -0.2855
    1DIPC   D3B19739  25.933   1.007   4.661 -0.1532  0.0792 -0.1215
    1DIPC   C4B19740  26.249   1.066   4.965 -0.0275 -0.0255 -0.0277
    1DIPC   NC319741  19.132  26.952   2.348 -0.1772  0.1106  0.3075
    1DIPC   PO419742  19.483  27.006   2.490 -0.2024  0.0468  0.1236
    1DIPC   GL119743  19.168  26.689   2.779  0.2946  0.3185  0.0648
    1DIPC   GL219744  19.105  26.331   2.711 -0.1946  0.2620  0.1777
    1DIPC   C1A19745  19.285  26.445   3.116 -0.0771  0.1729 -0.0713
    1DIPC   D2A19746  19.107  26.101   3.323  0.0977  0.2434 -0.3600
    1DIPC   D3A19747  19.217  25.799   3.756  0.0000  0.0857  0.1773
    1DIPC   C4A19748  18.896  25.592   3.951 -0.0210 -0.0955  0.0578
    1DIPC   C1B19749  19.356  25.949   2.917  0.1390 -0.1226 -0.2681
    1DIPC   D2B19750  19.448  25.766   3.226  0.0316 -0.0820  0.2039
    1DIPC   D3B19751  19.356  25.307   3.363  0.0924  0.2288  0.1345
    1DIPC   C4B19752  19.116  25.237   3.730 -0.0946 -0.2117  0.1620
    1DIPC   NC319753   7.654  17.325   2.561  0.0601 -0.1005  0.0531
    1DIPC   PO419754   7.473  16.976   2.337 -0.1451  0.0137  0.3180
    1DIPC   GL119755   7.281  16.987   2.800 -0.0543 -0.2109 -0.0614
    1DIPC   GL219756   7.136  17.339   2.951  0.1227  0.3395 -0.2650
    1DIPC   C1A19757   7.066  16.781   3.188  0.1598 -0.3513  0.0213
    1DIPC   D2A19758   7.112  16.602   3.543  0.0005  0.1757  0.1288
    1DIPC   D3A19759   7.379  16.569   3.907 -0.0758  0.1434 -0.1854
    1DIPC   C4A19760   7.678  16.352   4.057  0.0494  0.0991  0.0435
    1DIPC   C1B19761   7.306  17.271   3.421  0.0215 -0.0737 -0.0835
    1DIPC   D2B19762   7.583  17.038   3.781 -0.0834  0.1790 -0.0305
    1DIPC   D3B19763   7.567  17.409   4.101  0.2338 -0.1351  0.0584
    1DIPC   C4B19764   7.879  17.585   4.283 -0.1120 -0.1800 -0.1868
    1DIPC   NC319765   1.734  23.244   2.542  0.4608  0.3082  0.1105
    1DIPC   PO419766   2.169  23.290   2.510 -0.0297  0.1917  0.0839
    1DIPC   GL119767   2.354  23.365   2.888 -0.0298 -0.7021 -0.0147
    1DIPC   GL219768   2.431  23.711   2.935  0.0103  0.1550 -0.0509
    1DIPC   C1A19769   2.427  23.281   3.249  0.0450  0.1029 -0.2182
    1DIPC   D2A19770   2.556  23.082   3.586 -0.1333  0.0507  0.2256
    1DIPC   D3A19771   2.736  23.145   4.029  0.0869  0.1088  0.1190
    1DIPC   C4A19772   2.890  22.776   4.042  0.2732  0.1630 -0.2648
    1DIPC   C1B19773   2.247  23.777   3.272  0.2198 -0.2256  0.1194
    1DIPC   D2B19774   2.078  23.967   3.676  0.0498  0.2496 -0.1002
    1DIPC   D3B19775   2.043  24.302   3.918  0.4367 -0.1788  0.0533
    1DIPC   C4B19776   1.973  24.254   4.333 -0.0042 -0.0990  0.1997
    1DIPC   NC319777   7.887  22.785   1.818 -0.1827  0.0236 -0.0035
    1DIPC   PO419778   8.022  22.645   2.221 -0.0041  0.0435  0.0821
    1DIPC   GL119779   7.903  22.621   2.573 -0.0563  0.1521 -0.0924
    1DIPC   GL219780   8.072  22.816   2.717 -0.0694  0.2219 -0.1110
    1DIPC   C1A19781   7.773  22.583   2.987  0.2173  0.4369 -0.0172
    1DIPC   D2A19782   7.630  22.314   3.296 -0.2474 -0.1822  0.1163
    1DIPC   D3A19783   7.616  22.707   3.464 -0.4730 -0.1558 -0.0502
    1DIPC   C4A19784   7.847  22.913   3.686 -0.2448 -0.0164  0.1284
    1DIPC   C1B19785   7.719  23.080   2.836 -0.0797 -0.2592 -0.0739
    1DIPC   D2B19786   7.454  23.434   2.999  0.2467 -0.1087  0.2102
    1DIPC   D3B19787   7.319  23.801   3.272 -0.1057  0.2349 -0.0681
    1DIPC   C4B19788   7.434  23.750   3.702  0.0199 -0.2272  0.0396
    1DIPC   NC319789  14.295  12.823   2.317  0.0128  0.1678  0.0441
    1DIPC   PO419790  14.315  13.231   2.330 -0.3754 -0.0494 -0.0961
    1DIPC   GL119791  14.320  13.328   2.855  0.0503 -0.2466 -0.1417
    1DIPC   GL219792  14.656  13.384   3.120 -0.0531 -0.2031 -0.2434
    1DIPC   C1A19793  14.074  13.060   3.119 -0.3520  0.1714  0.0887
    1DIPC   D2A19794  13.954  12.977   3.616  0.0598 -0.3226  0.1884
    1DIPC   D3A19795  14.417  13.053   3.852 -0.1930 -0.0629  0.0491
    1DIPC   C4A19796  14.601  13.495   3.907 -0.1411  0.2725 -0.1854
    1DIPC   C1B19797  14.361  13.315   3.451 -0.4548 -0.2401  0.0913
    1DIPC   D2B19798  14.074  13.492   3.792 -0.2212  0.0015  0.2369
    1DIPC   D3B19799  14.063  13.311   4.165 -0.4034  0.0096 -0.1896
    1DIPC   C4B19800  14.548  13.123   4.298  0.3201 -0.5564  0.1634
    1DIPC   NC319801  22.796   3.121   3.529  0.1820 -0.0506  0.1041
    1DIPC   PO419802  23.049   3.453   3.723 -0.2922 -0.0134  0.2328
    1DIPC   GL119803  23.317   3.450   4.149  0.0680  0.1338 -0.0889
    1DIPC   GL219804  23.456   3.724   4.155 -0.0972  0.0849  0.0629
    1DIPC   C1A19805  23.558   3.409   4.585  0.0352  0.1238 -0.0976
    1DIPC   D2A19806  23.625   3.235   5.002 -0.0369 -0.0577 -0.0158
    1DIPC   D3A19807  23.132   3.234   5.037  0.0999 -0.2793 -0.3176
    1DIPC   C4A19808  22.833   3.266   5.356 -0.1630 -0.0583 -0.1062
    1DIPC   C1B19809  23.705   3.876   4.512  0.0613  0.0238 -0.0403
    1DIPC   D2B19810  23.625   3.956   4.934  0.0501  0.0472  0.0557
    1DIPC   D3B19811  23.293   3.698   5.063 -0.0543 -0.0245  0.4940
    1DIPC   C4B19812  22.826   3.750   5.023 -0.1001  0.3315 -0.0129
    1DIPC   NC319813   9.466  11.915   2.738 -0.0099 -0.1170  0.0265
    1DIPC   PO419814   9.830  12.112   2.776  0.1404  0.1178 -0.1320
    1DIPC   GL119815   9.650  12.378   3.133  0.1518  0.1463 -0.0520
    1DIPC   GL219816   9.448  12.166   3.493 -0.2477 -0.1708  0.1548
    1DIPC   C1A19817   9.370  12.724   3.378  0.0169  0.1314  0.1164
    1DIPC   D2A19818   8.978  13.027   3.230 -0.0460 -0.1282 -0.0943
    1DIPC   D3A19819   8.897  13.132   3.594  0.1050 -0.0284  0.0082
    1DIPC   C4A19820   8.612  13.006   3.920  0.1630  0.2362  0.0476
    1DIPC   C1B19821   8.933  12.470   3.530 -0.2616  0.0425  0.0103
    1DIPC   D2B19822   8.998  12.710   3.895 -0.1498 -0.2067 -0.0880
    1DIPC   D3B19823   9.118  12.612   4.386  0.2026 -0.0711 -0.5884
    1DIPC   C4B19824   9.064  13.009   4.720  0.1134 -0.1318  0.0757
    1DIPC   NC319825  27.532  10.071   2.323 -0.2922 -0.1031  0.1326
    1DIPC   PO419826  27.735  10.207   2.626  0.1715 -0.0948  0.1342
    1DIPC   GL119827  27.589  10.133   3.040 -0.1385  0.1447 -0.1636
    1DIPC   GL219828  27.199  10.064   3.142 -0.2502 -0.0168  0.2972
    1DIPC   C1A19829  27.631   9.797   3.364  0.4679  0.2277 -0.0007
    1DIPC   D2A19830  27.838   9.583   3.642  0.1872  0.2372  0.0223
    1DIPC   D3A19831  28.344   9.629   3.499 -0.1627 -0.2880 -0.1500
    1DIPC   C4A19832  28.728   9.438   3.688  0.1632  0.0541  0.1187
    1DIPC   C1B19833  27.061   9.876   3.548 -0.2623 -0.2624 -0.1143
    1DIPC   D2B19834  26.838   9.680   3.764 -0.2736  0.1569  0.1145
    1DIPC   D3B19835  26.836   9.364   3.498  0.0714 -0.2237 -0.3876
    1DIPC   C4B19836  27.027   8.941   3.522 -0.4907 -0.1522 -0.0017
    1DIPC   NC319837  22.570  17.144   1.939 -0.1243 -0.0540  0.1974
    1DIPC   PO419838  22.717  17.573   2.124 -0.0400 -0.1388  0.2339
    1DIPC   GL119839  22.601  17.270   2.395 -0.0476  0.1333  0.1364
    1DIPC   GL219840  22.528  16.972   2.373 -0.1700  0.2141  0.0997
    1DIPC   C1A19841  22.597  17.421   2.907  0.0810  0.3005  0.3123
    1DIPC   D2A19842  22.656  17.586   3.382 -0.3874  0.0659 -0.0192
    1DIPC   D3A19843  22.517  17.168   3.563 -0.1004 -0.4097 -0.2885
    1DIPC   C4A19844  22.909  17.186   3.743 -0.0986  0.0821  0.1591
    1DIPC   C1B19845  22.571  16.862   2.785 -0.0419 -0.3840 -0.1252
    1DIPC   D2B19846  22.589  16.786   3.225  0.1326 -0.0980  0.2932
    1DIPC   D3B19847  22.921  17.063   3.163  0.1602 -0.2051 -0.0707
    1DIPC   C4B19848  23.105  17.186   2.715  0.0163 -0.2065 -0.0641
    1DIPC   NC319849   9.193  10.746   3.286 -0.0975  0.1236  0.0863
    1DIPC   PO419850   8.753  10.979   3.255 -0.1597  0.3599 -0.0440
    1DIPC   GL119851   8.912  10.843   3.687 -0.1328 -0.0388 -0.1932
    1DIPC   GL219852   9.129  11.190   3.731  0.1397 -0.2919 -0.1316
    1DIPC   C1A19853   8.907  10.808   4.126 -0.1266 -0.1828  0.0883
    1DIPC   D2A19854   8.624  10.638   4.533  0.0731 -0.2410  0.1150
    1DIPC   D3A19855   8.784  11.093   4.540 -0.2604 -0.1523 -0.0382
    1DIPC   C4A19856   9.073  11.432   4.748 -0.1242 -0.3170 -0.2742
    1DIPC   C1B19857   9.418  10.811   4.063 -0.1023  0.0326  0.3127
    1DIPC   D2B19858   9.564  10.621   4.452  0.0060 -0.0582 -0.1617
    1DIPC   D3B19859   9.112  10.658   4.541 -0.0049 -0.0656 -0.0867
    1DIPC   C4B19860   8.972  10.362   4.779  0.0707  0.0319 -0.2779
    1DIPC   NC319861   3.079   5.511   3.077  0.1577 -0.0866  0.1661
    1DIPC   PO419862   2.996   5.947   3.043 -0.0193 -0.0823  0.2428
    1DIPC   GL119863   2.753   5.912   3.314 -0.2136  0.0068 -0.0840
    1DIPC   GL219864   2.790   6.184   3.485 -0.2006 -0.0390  0.1609
    1DIPC   C1A19865   2.826   5.745   3.774 -0.1340  0.2973  0.1167
    1DIPC   D2A19866   2.589   5.782   4.160  0.1396  0.0210  0.3014
    1DIPC   D3A19867   2.292   6.136   4.282  0.1849  0.1553  0.0328
    1DIPC   C4A19868   2.167   6.355   4.095 -0.0714 -0.1015 -0.5313
    1DIPC   C1B19869   2.537   6.497   3.780 -0.1480  0.0336 -0.2059
    1DIPC   D2B19870   2.339   6.817   4.040  0.1176  0.2856  0.0052
    1DIPC   D3B19871   2.636   7.136   4.165 -0.1033  0.3305 -0.4900
    1DIPC   C4B19872   2.599   7.443   4.499 -0.1121 -0.1654 -0.0168
    1DIPC   NC319873  25.879   9.441   2.803 -0.0781 -0.1593  0.0304
    1DIPC   PO419874  26.363   9.336   2.751  0.0782  0.0071  0.2476
    1DIPC   GL119875  26.291   9.293   3.147 -0.1191  0.1955 -0.0303
    1DIPC   GL219876  26.416   8.958   3.220 -0.3321 -0.1962 -0.0781
    1DIPC   C1A19877  26.306   9.632   3.603 -0.0028  0.0562  0.1343
    1DIPC   D2A19878  26.425   9.533   3.952 -0.0223 -0.2618  0.1989
    1DIPC   D3A19879  26.174   9.484   4.307 -0.2971 -0.2092 -0.2572
    1DIPC   C4A19880  25.780   9.641   4.419 -0.0088  0.2345 -0.0126
    1DIPC   C1B19881  26.536   8.973   3.611 -0.0487 -0.0236 -0.0584
    1DIPC   D2B19882  26.712   9.116   4.007  0.2991 -0.1668  0.3877
    1DIPC   D3B19883  26.700   9.431   4.400  0.3000  0.1818 -0.4658
    1DIPC   C4B19884  26.558   9.294   4.802 -0.2035 -0.0346 -0.1405
    1DIPC   NC319885  13.786  24.703   1.398 -0.0212 -0.4031 -0.3454
    1DIPC   PO419886  13.614  24.598   1.884 -0.0328  0.0625  0.2217
    1DIPC   GL119887  13.789  24.678   2.379 -0.0855  0.0163  0.0271
    1DIPC   GL219888  14.111  24.682   2.447  0.0061  0.0436 -0.0472
    1DIPC   C1A19889  13.863  24.809   2.845 -0.2316  0.0661 -0.2374
    1DIPC   D2A19890  13.999  24.686   3.286  0.1665 -0.0260 -0.0432
    1DIPC   D3A19891  13.814  24.404   3.351  0.2689 -0.0165  0.0732
    1DIPC   C4A19892  13.570  24.143   3.499  0.2632 -0.0353  0.0383
    1DIPC   C1B19893  14.474  24.855   2.714  0.0518  0.0679 -0.1978
    1DIPC   D2B19894  14.515  24.699   3.129  0.1614 -0.0129  0.3003
    1DIPC   D3B19895  14.409  24.851   3.524 -0.0401  0.1970 -0.2026
    1DIPC   C4B19896  14.387  25.229   3.483  0.2605 -0.0078  0.1846
    1DIPC   NC319897   2.446  11.536   2.425  0.1167 -0.3943 -0.1297
    1DIPC   PO419898   2.222  11.690   2.765 -0.0126  0.0114  0.1662
    1DIPC   GL119899   2.075  11.436   3.103  0.1045  0.2965  0.1006
    1DIPC   GL219900   2.225  11.171   3.253  0.0439  0.2711  0.1920
    1DIPC   C1A19901   2.137  11.363   3.686 -0.0607  0.2730  0.2116
    1DIPC   D2A19902   2.543  11.447   3.915 -0.1358 -0.4077 -0.0715
    1DIPC   D3A19903   2.312  11.138   4.140  0.1000  0.2738  0.3188
    1DIPC   C4A19904   2.415  11.032   4.588  0.1902  0.3555 -0.0126
    1DIPC   C1B19905   1.825  10.845   3.473 -0.0784  0.0650 -0.0444
    1DIPC   D2B19906   1.591  10.535   3.620  0.1638 -0.0885  0.1234
    1DIPC   D3B19907   1.703  10.493   4.047 -0.1239 -0.2467 -0.2232
    1DIPC   C4B19908   1.913  10.812   4.312 -0.2184 -0.2182 -0.1901
    1DIPC   NC319909  28.277  21.913   2.905 -0.0608 -0.0151  0.0291
    1DIPC   PO419910  28.492  21.592   3.056  0.3268 -0.0573  0.2745
    1DIPC   GL119911  28.570  21.537   3.486 -0.0784 -0.0480 -0.4873
    1DIPC   GL219912  28.344  21.406   3.741 -0.0033 -0.1438  0.1529
    1DIPC   C1A19913  28.745  21.694   3.874 -0.0364 -0.0236  0.0361
    1DIPC   D2A19914  29.161  21.875   4.085 -0.2663 -0.3118 -0.0348
    1DIPC   D3A19915  29.076  21.697   4.431 -0.0327  0.2243 -0.3003
    1DIPC   C4A19916  28.794  21.893   4.791 -0.0015  0.1065 -0.1992
    1DIPC   C1B19917  28.079  21.533   4.047 -0.2358  0.0240  0.3185
    1DIPC   D2B19918  27.976  21.968   4.172 -0.1054 -0.0534  0.0482
    1DIPC   D3B19919  27.870  21.831   4.637 -0.2374 -0.2149  0.0510
    1DIPC   C4B19920  27.590  21.565   4.822  0.1623 -0.0834 -0.2076
    1DIPC   NC319921  11.258  10.387   2.565  0.1494 -0.0654  0.0270
    1DIPC   PO419922  11.347   9.950   2.608 -0.1159 -0.1116 -0.1399
    1DIPC   GL119923  11.183  10.060   3.014  0.0733  0.0603  0.0662
    1DIPC   GL219924  11.339   9.804   3.186 -0.0362 -0.1010  0.1558
    1DIPC   C1A19925  11.098  10.194   3.436 -0.0610 -0.1861 -0.1395
    1DIPC   D2A19926  11.369  10.125   3.839 -0.1008 -0.0857  0.3267
    1DIPC   D3A19927  11.640  10.218   4.126 -0.0848 -0.0913  0.0473
    1DIPC   C4A19928  11.845  10.332   4.553  0.3511 -0.1076 -0.0142
    1DIPC   C1B19929  11.676   9.983   3.451 -0.1053 -0.2841 -0.2406
    1DIPC   D2B19930  11.835   9.769   3.834 -0.0119  0.3047  0.1608
    1DIPC   D3B19931  11.644   9.756   4.278  0.1587 -0.1243  0.1415
    1DIPC   C4B19932  11.623   9.929   4.712 -0.1179  0.0370 -0.1228
    1DIPC   NC319933   0.141   3.619   2.881 -0.0979 -0.0779 -0.0074
    1DIPC   PO419934  29.661   3.686   3.064 -0.0217  0.0834  0.0617
    1DIPC   GL119935  29.414   3.851   3.432 -0.0674  0.0411  0.0625
    1DIPC   GL219936  29.456   4.222   3.340 -0.1247  0.2028  0.0258
    1DIPC   C1A19937  29.441   3.785   3.878  0.1764  0.1441 -0.1805
    1DIPC   D2A19938  29.547   3.735   4.238  0.0801  0.1720  0.1459
    1DIPC   D3A19939  29.408   3.426   4.541 -0.3369  0.1881 -0.3185
    1DIPC   C4A19940  29.229   3.036   4.550 -0.1132 -0.1698  0.0456
    1DIPC   C1B19941  29.329   4.268   3.779 -0.2629 -0.0674  0.0381
    1DIPC   D2B19942  29.116   4.126   4.114 -0.1022  0.2032  0.4189
    1DIPC   D3B19943  29.421   4.077   4.542 -0.1712  0.1730  0.0954
    1DIPC   C4B19944  29.824   3.943   4.750 -0.0450  0.0012  0.0073
    1DIPC   NC319945   1.838  17.197   2.314  0.2879 -0.2350  0.2910
    1DIPC   PO419946   1.981  17.407   2.541  0.0269  0.1735 -0.0298
    1DIPC   GL119947   1.610  17.389   2.929 -0.1485  0.1322  0.0661
    1DIPC   GL219948   1.890  17.413   3.201  0.0213  0.1317 -0.1896
    1DIPC   C1A19949   1.252  17.338   3.275  0.0877  0.1566  0.3017
    1DIPC   D2A19950   0.956  17.478   3.543 -0.1709  0.4722 -0.2359
    1DIPC   D3A19951   0.852  17.931   3.326 -0.1733 -0.1686 -0.0235
    1DIPC   C4A19952   0.873  18.286   3.530 -0.1960 -0.1271 -0.1992
    1DIPC   C1B19953   1.880  17.493   3.625  0.2324 -0.0542  0.1155
    1DIPC   D2B19954   1.752  17.543   4.105  0.0744  0.0417 -0.2376
    1DIPC   D3B19955   1.978  17.639   4.420  0.0234  0.5073  0.2305
    1DIPC   C4B19956   1.687  17.600   4.720 -0.1147 -0.2433 -0.1429
    1DIPC   NC319957  28.599  29.239   2.567 -0.2734 -0.0244 -0.2297
    1DIPC   PO419958  28.261  29.038   2.689 -0.1166  0.1775 -0.2220
    1DIPC   GL119959  28.497  29.059   3.061  0.1294  0.0528 -0.1597
    1DIPC   GL219960  28.600  29.355   3.081  0.3636 -0.1586  0.0417
    1DIPC   C1A19961  28.532  28.690   3.357  0.0493  0.0666  0.1133
    1DIPC   D2A19962  28.944  28.415   3.411 -0.2177  0.0405 -0.1634
    1DIPC   D3A19963  28.884  28.105   3.812 -0.0969  0.1433  0.0241
    1DIPC   C4A19964  28.960  28.161   4.256 -0.1511  0.1732  0.0072
    1DIPC   C1B19965  28.590  29.344   3.551 -0.2854 -0.1080  0.0730
    1DIPC   D2B19966  28.388  29.062   3.875 -0.3704  0.0002  0.0289
    1DIPC   D3B19967  28.587  28.743   3.855  0.1175 -0.3731  0.0528
    1DIPC   C4B19968  29.021  28.687   4.009  0.1197  0.1419 -0.0272
    1DIPC   NC319969  18.039  24.323   1.594  0.3563  0.1619 -0.3408
    1DIPC   PO419970  18.284  24.071   1.740 -0.0613  0.0434 -0.1585
    1DIPC   GL119971  18.396  24.047   2.122  0.0359  0.0855  0.1430
    1DIPC   GL219972  18.228  24.323   2.281  0.1975  0.4451 -0.2317
    1DIPC   C1A19973  18.325  23.956   2.555  0.2582  0.2231 -0.1950
    1DIPC   D2A19974  18.411  23.783   2.954  0.5376  0.1295 -0.2751
    1DIPC   D3A19975  18.162  23.673   3.252 -0.0750 -0.1768  0.0357
    1DIPC   C4A19976  18.118  23.219   3.348 -0.1444 -0.1658  0.1244
    1DIPC   C1B19977  18.265  24.694   2.636 -0.1036 -0.3137  0.2851
    1DIPC   D2B19978  18.166  24.762   3.101 -0.1713  0.0414 -0.1427
    1DIPC   D3B19979  18.538  24.893   3.015 -0.1757  0.1115  0.2450
    1DIPC   C4B19980  18.820  25.226   2.954  0.3281  0.0488  0.1410
    1DIPC   NC319981  23.075  23.401   2.406  0.1945 -0.2757  0.1277
    1DIPC   PO419982  23.200  23.028   2.659 -0.0511 -0.1627 -0.1179
    1DIPC   GL119983  23.279  22.942   3.120  0.2337  0.3468  0.1681
    1DIPC   GL219984  22.978  22.743   3.314  0.2142  0.1060 -0.0831
    1DIPC   C1A19985  23.055  23.268   3.412 -0.2579  0.2623  0.1083
    1DIPC   D2A19986  22.808  23.578   3.673  0.0730 -0.1573 -0.3016
    1DIPC   D3A19987  23.124  23.905   3.514  0.3406  0.2345  0.1092
    1DIPC   C4A19988  23.083  24.296   3.796  0.3339 -0.1478  0.0974
    1DIPC   C1B19989  23.183  22.854   3.656 -0.1809  0.4496  0.2889
    1DIPC   D2B19990  23.131  22.794   4.085  0.0616  0.0914 -0.0888
    1DIPC   D3B19991  23.339  22.567   4.436 -0.1175  0.1372 -0.0566
    1DIPC   C4B19992  23.059  22.572   4.728  0.0169 -0.0190  0.0040
    1DIPC   NC319993   9.523  14.209   2.364  0.1766  0.2755  0.3399
    1DIPC   PO419994   9.174  14.558   2.560 -0.1443  0.3161 -0.2877
    1DIPC   GL119995   9.295  14.488   2.941 -0.2207  0.0118  0.0433
    1DIPC   GL219996   9.457  14.173   2.877  0.2424 -0.3984 -0.1474
    1DIPC   C1A19997   9.555  14.571   3.301  0.1343  0.0583 -0.0895
    1DIPC   D2A19998   9.879  14.459   3.517  0.0621  0.1888  0.0187
    1DIPC   D3A19999   9.802  14.516   3.913  0.0373  0.0449 -0.0545
    1DIPC   C4A20000   9.912  14.287   4.321  0.0103 -0.0922 -0.0657
    1DIPC   C1B20001   9.228  14.116   3.251 -0.1168  0.0024 -0.0003
    1DIPC   D2B20002   9.436  14.191   3.700 -0.0761  0.0400  0.1550
    1DIPC   D3B20003   9.782  13.965   3.814  0.2475  0.5043  0.0153
    1DIPC   C4B20004  10.158  14.152   3.886  0.1583  0.2062  0.4159
    1DIPC   NC320005  23.483  27.178   3.550 -0.0503  0.0628 -0.0136
    1DIPC   PO420006  23.967  27.422   3.421  0.1046  0.0661  0.0906
    1DIPC   GL120007  23.900  27.388   3.797  0.0562 -0.2203  0.1634
    1DIPC   GL220008  23.980  27.678   3.929  0.0747 -0.0287  0.3610
    1DIPC   C1A20009  23.890  27.014   4.014 -0.2510 -0.0841  0.0476
    1DIPC   D2A20010  23.854  26.833   4.365 -0.0158  0.3454 -0.0529
    1DIPC   D3A20011  23.744  26.627   4.694  0.0745 -0.1697 -0.2398
    1DIPC   C4A20012  23.783  26.189   4.584 -0.0974 -0.1874  0.1082
    1DIPC   C1B20013  24.171  28.006   4.024  0.2125 -0.0468  0.5295
    1DIPC   D2B20014  24.334  28.134   4.392  0.0999 -0.1733  0.2451
    1DIPC   D3B20015  24.561  28.345   4.151 -0.1338 -0.2857 -0.0452
    1DIPC   C4B20016  24.341  28.632   3.930  0.2245 -0.2733 -0.0249
    1DIPC   NC320017  27.935   3.815   3.521  0.4530 -0.3743  0.2459
    1DIPC   PO420018  28.003   4.168   3.241 -0.1310  0.1786 -0.2745
    1DIPC   GL120019  28.069   4.235   3.705  0.2989  0.1099  0.0421
    1DIPC   GL220020  28.425   4.429   3.555  0.1306 -0.1311  0.0657
    1DIPC   C1A20021  27.906   4.266   4.121 -0.1170  0.0171 -0.0207
    1DIPC   D2A20022  27.636   4.003   4.327 -0.0330  0.1797  0.0589
    1DIPC   D3A20023  27.952   4.008   4.576 -0.1322  0.3161 -0.0540
    1DIPC   C4A20024  28.475   4.098   4.578  0.0973  0.0758  0.0092
    1DIPC   C1B20025  28.319   4.546   3.985  0.0856  0.3767  0.1561
    1DIPC   D2B20026  28.298   4.733   4.406  0.0745  0.1412 -0.1912
    1DIPC   D3B20027  28.165   5.154   4.519  0.2039  0.3269  0.1449
    1DIPC   C4B20028  27.747   5.149   4.618  0.2164  0.1236  0.0957
    1DIPC   NC320029   4.717  27.658   1.709 -0.1868  0.2353 -0.1620
    1DIPC   PO420030   4.912  27.708   2.067 -0.0922 -0.0137 -0.1231
    1DIPC   GL120031   4.710  27.423   2.544 -0.0299  0.1672 -0.0329
    1DIPC   GL220032   4.334  27.270   2.481 -0.0719 -0.3537  0.0467
    1DIPC   C1A20033   4.814  27.241   2.924  0.2098 -0.0630 -0.0106
    1DIPC   D2A20034   5.075  27.211   3.238  0.2460 -0.2891 -0.0043
    1DIPC   D3A20035   4.831  27.321   3.503 -0.1016 -0.1612 -0.1633
    1DIPC   C4A20036   5.020  27.452   3.890  0.1089  0.1686  0.0540
    1DIPC   C1B20037   4.296  27.298   2.839 -0.0824 -0.0532  0.0619
    1DIPC   D2B20038   4.514  27.517   3.190  0.1202 -0.1935  0.0017
    1DIPC   D3B20039   4.407  27.095   3.262 -0.1281 -0.2437  0.1899
    1DIPC   C4B20040   4.675  26.704   3.131  0.2062  0.0928  0.1394
    1DIPC   NC320041   6.179  19.731   1.594  0.5467  0.2312  0.1911
    1DIPC   PO420042   6.436  19.592   2.061  0.0132  0.0827  0.0609
    1DIPC   GL120043   6.337  19.273   2.312 -0.1621 -0.4579 -0.2139
    1DIPC   GL220044   6.278  19.414   2.584  0.2107 -0.3265  0.0685
    1DIPC   C1A20045   6.123  18.952   2.645 -0.2012  0.1565 -0.5498
    1DIPC   D2A20046   5.722  18.833   2.763  0.0219 -0.1129  0.1305
    1DIPC   D3A20047   5.868  18.564   3.129 -0.2632  0.2103 -0.0637
    1DIPC   C4A20048   5.746  18.700   3.544  0.2367 -0.1248  0.0647
    1DIPC   C1B20049   6.175  19.611   2.945 -0.0076 -0.0316  0.0425
    1DIPC   D2B20050   5.914  19.896   3.083 -0.0567 -0.1748  0.0602
    1DIPC   D3B20051   5.798  19.819   3.514 -0.2564  0.0742  0.2283
    1DIPC   C4B20052   5.976  20.110   3.813  0.3020  0.2826 -0.1521
    1DIPC   NC320053  12.199  21.750   1.631  0.1918 -0.4007  0.1332
    1DIPC   PO420054  12.221  21.992   1.954 -0.1134 -0.0961  0.3480
    1DIPC   GL120055  12.590  21.921   2.255  0.0824 -0.0423 -0.2307
    1DIPC   GL220056  12.801  22.123   2.451 -0.1110 -0.3167 -0.2260
    1DIPC   C1A20057  12.853  21.657   2.566 -0.1578  0.0512  0.0025
    1DIPC   D2A20058  13.289  21.473   2.747 -0.0578 -0.3132 -0.0118
    1DIPC   D3A20059  13.642  21.415   2.972 -0.1862 -0.2442  0.3354
    1DIPC   C4A20060  13.584  21.207   3.388  0.1367  0.1894  0.1772
    1DIPC   C1B20061  12.848  22.298   2.817 -0.3524  0.0299 -0.2362
    1DIPC   D2B20062  12.964  22.438   3.163  0.1712 -0.0956 -0.0094
    1DIPC   D3B20063  13.202  22.113   3.431  0.2196  0.2150 -0.1535
    1DIPC   C4B20064  13.572  22.316   3.642 -0.3559 -0.1037  0.1820
    1DIPC   NC320065  16.886  21.202   1.712 -0.0724 -0.2647 -0.0470
    1DIPC   PO420066  16.839  20.782   2.017  0.2566 -0.2238 -0.1501
    1DIPC   GL120067  16.921  21.097   2.322 -0.1117  0.2011 -0.2053
    1DIPC   GL220068  16.951  21.411   2.186  0.1161  0.0770  0.2306
    1DIPC   C1A20069  17.041  21.254   2.746  0.0583 -0.1827  0.1711
    1DIPC   D2A20070  16.734  21.380   3.104  0.1297  0.0514  0.3233
    1DIPC   D3A20071  16.779  21.738   3.332  0.1023 -0.0383  0.1172
    1DIPC   C4A20072  16.933  22.099   3.123 -0.1947 -0.0056 -0.1035
    1DIPC   C1B20073  16.697  21.707   2.519 -0.2780  0.0009  0.2657
    1DIPC   D2B20074  16.544  21.791   2.922  0.0411  0.0363  0.1723
    1DIPC   D3B20075  16.324  21.612   3.204 -0.0192 -0.2783  0.2660
    1DIPC   C4B20076  16.412  21.269   3.505 -0.1929  0.2815 -0.1977
    1DIPC   NC320077   3.568  25.694   2.072 -0.0433 -0.0740 -0.0267
    1DIPC   PO420078   3.674  25.244   2.062  0.1958 -0.1072  0.0787
    1DIPC   GL120079   3.781  25.386   2.432 -0.1236 -0.1737 -0.0816
    1DIPC   GL220080   3.574  25.623   2.610  0.0892  0.1180  0.1555
    1DIPC   C1A20081   4.022  25.193   2.879  0.1401 -0.0136  0.0679
    1DIPC   D2A20082   4.147  25.327   3.285  0.0193 -0.1283 -0.2170
    1DIPC   D3A20083   3.945  25.671   3.536 -0.2054 -0.0739 -0.0413
    1DIPC   C4A20084   4.007  25.558   4.027 -0.1226 -0.0150 -0.0434
    1DIPC   C1B20085   3.210  25.545   2.788  0.1493 -0.0137  0.1473
    1DIPC   D2B20086   2.796  25.207   2.815 -0.1549  0.0458  0.1293
    1DIPC   D3B20087   2.789  25.173   3.224  0.0193 -0.2575  0.3728
    1DIPC   C4B20088   2.352  25.228   3.465  0.0006 -0.2566 -0.0390
    1DIPC   NC320089  14.403  23.990   1.397  0.0469  0.0678  0.0474
    1DIPC   PO420090  14.731  23.898   1.771 -0.5315  0.0594  0.0719
    1DIPC   GL120091  14.823  23.790   2.240  0.1230  0.1272 -0.0572
    1DIPC   GL220092  14.917  23.512   2.371  0.2758 -0.3199 -0.0516
    1DIPC   C1A20093  14.645  23.849   2.705 -0.0732 -0.1098 -0.3348
    1DIPC   D2A20094  14.267  23.965   2.960  0.0127 -0.2218  0.2416
    1DIPC   D3A20095  14.197  23.491   2.852 -0.0497  0.0175  0.3118
    1DIPC   C4A20096  14.097  23.283   3.204 -0.1762 -0.2264 -0.0886
    1DIPC   C1B20097  15.131  23.582   2.738 -0.3423 -0.0324  0.0292
    1DIPC   D2B20098  15.217  23.339   3.100 -0.2147  0.0840 -0.1489
    1DIPC   D3B20099  14.832  23.272   3.352 -0.1699 -0.0297  0.1625
    1DIPC   C4B20100  14.648  23.330   2.924 -0.1292  0.2537  0.0337
    1DIPC   NC320101  21.385  22.667   2.808 -0.1223 -0.0208 -0.0232
    1DIPC   PO420102  20.954  22.671   2.711  0.3060  0.1739 -0.2454
    1DIPC   GL120103  20.980  22.793   3.082 -0.0446 -0.1876 -0.0482
    1DIPC   GL220104  20.847  22.418   3.242 -0.0698 -0.0581  0.1868
    1DIPC   C1A20105  20.909  23.129   3.462  0.0821 -0.1286 -0.0523
    1DIPC   D2A20106  20.700  23.392   3.772  0.0104 -0.1326  0.0504
    1DIPC   D3A20107  20.423  23.054   3.797  0.1055  0.0031  0.3621
    1DIPC   C4A20108  20.566  22.790   3.485  0.2664  0.4410  0.0096
    1DIPC   C1B20109  21.032  22.683   3.624  0.0648  0.0623  0.0909
    1DIPC   D2B20110  21.332  22.619   3.998  0.0853 -0.0760  0.0419
    1DIPC   D3B20111  21.212  22.677   4.411  0.0263  0.2028  0.1673
    1DIPC   C4B20112  20.741  22.761   4.630  0.1365  0.0913 -0.0202
    1DIPC   NC320113   1.492   5.002   3.132  0.2500 -0.2241  0.2006
    1DIPC   PO420114   1.138   5.293   3.095  0.1245 -0.1536  0.0757
    1DIPC   GL120115   1.253   5.275   3.503 -0.2802  0.1353  0.1208
    1DIPC   GL220116   1.575   5.077   3.580  0.2042  0.1535  0.4808
    1DIPC   C1A20117   1.134   5.287   3.937  0.2887 -0.1810  0.0343
    1DIPC   D2A20118   0.941   5.353   4.364 -0.2791 -0.0799  0.2383
    1DIPC   D3A20119   0.791   5.791   4.553 -0.1913  0.1151 -0.0234
    1DIPC   C4A20120   0.916   5.878   5.005  0.0209 -0.1265  0.3597
    1DIPC   C1B20121   1.313   4.777   3.766 -0.0278 -0.1384  0.1417
    1DIPC   D2B20122   0.957   4.489   3.711  0.1337  0.0545  0.5083
    1DIPC   D3B20123   1.086   4.560   4.186  0.1187  0.0004  0.1515
    1DIPC   C4B20124   1.303   4.963   4.408 -0.0359 -0.1738  0.2990
    1DIPC   NC320125  25.711  19.402   2.547  0.0036 -0.0204  0.0339
    1DIPC   PO420126  25.932  19.806   2.683  0.2439  0.1407 -0.3105
    1DIPC   GL120127  26.108  19.859   3.149  0.0971 -0.2456  0.0505
    1DIPC   GL220128  26.244  20.239   2.979  0.1431  0.2499 -0.1066
    1DIPC   C1A20129  26.069  20.144   3.444 -0.1449  0.1152 -0.2191
    1DIPC   D2A20130  26.368  20.359   3.805  0.1574 -0.0125  0.2776
    1DIPC   D3A20131  26.316  20.216   4.256  0.1888  0.1444  0.1620
    1DIPC   C4A20132  26.549  19.934   4.372 -0.0945  0.0874 -0.1786
    1DIPC   C1B20133  26.567  20.020   3.170  0.1478 -0.2004 -0.3352
    1DIPC   D2B20134  26.906  19.851   3.020  0.1184 -0.1318 -0.1646
    1DIPC   D3B20135  26.889  19.661   3.372 -0.0156 -0.1825 -0.1709
    1DIPC   C4B20136  26.772  19.460   3.731 -0.3279 -0.1376  0.1000
    1DIPC   NC320137  28.652  21.148   2.945 -0.0228  0.0879 -0.2909
    1DIPC   PO420138  28.615  20.690   2.972 -0.3874  0.0033  0.2305
    1DIPC   GL120139  28.734  20.816   3.321 -0.1278 -0.0103  0.0215
    1DIPC   GL220140  28.526  20.541   3.495 -0.0159  0.0864 -0.0984
    1DIPC   C1A20141  28.760  21.010   3.688  0.0488  0.1020  0.3084
    1DIPC   D2A20142  28.676  21.100   4.100 -0.3532 -0.1990  0.1291
    1DIPC   D3A20143  28.651  20.856   4.443 -0.0705 -0.2005  0.1727
    1DIPC   C4A20144  28.291  21.038   4.583  0.1158 -0.1406 -0.0331
    1DIPC   C1B20145  28.335  20.781   3.846  0.2949  0.1287  0.1264
    1DIPC   D2B20146  28.053  20.835   4.228 -0.2763 -0.0692  0.1087
    1DIPC   D3B20147  27.643  20.890   4.297 -0.0119  0.1524  0.0937
    1DIPC   C4B20148  27.405  21.253   4.460  0.0393  0.1555 -0.0500
    1DIPC   NC320149  15.928  21.953   1.070  0.0647 -0.1240  0.1604
    1DIPC   PO420150  15.798  21.764   1.465  0.0110 -0.0598  0.1981
    1DIPC   GL120151  15.460  21.962   1.789  0.1479  0.0871 -0.0246
    1DIPC   GL220152  15.376  22.329   1.647  0.0784  0.0277  0.2077
    1DIPC   C1A20153  15.375  22.069   2.177 -0.1433  0.2155  0.2080
    1DIPC   D2A20154  15.154  22.049   2.506 -0.0884  0.0337  0.0798
    1DIPC   D3A20155  15.259  21.796   2.861  0.1114 -0.0465  0.1063
    1DIPC   C4A20156  15.147  21.620   3.293 -0.2114 -0.2269 -0.0048
    1DIPC   C1B20157  15.501  22.557   2.025  0.1783 -0.0182  0.1180
    1DIPC   D2B20158  15.484  22.863   2.319  0.0429 -0.4198 -0.1059
    1DIPC   D3B20159  15.848  23.177   2.297 -0.2879 -0.4209  0.3407
    1DIPC   C4B20160  16.221  23.270   2.192 -0.0713 -0.0706 -0.1740
    1DIPC   NC320161  24.205   0.447   3.545  0.1923 -0.1207  0.1132
    1DIPC   PO420162  24.141   0.071   3.283 -0.1417  0.1183  0.0760
    1DIPC   GL120163  24.360  29.643   3.519  0.0807  0.1516  0.0645
    1DIPC   GL220164  24.354  29.846   3.851 -0.1371 -0.1422 -0.0245
    1DIPC   C1A20165  24.655  29.486   3.740 -0.1313  0.0076  0.0122
    1DIPC   D2A20166  24.727  29.004   4.059 -0.1209 -0.0957  0.0895
    1DIPC   D3A20167  25.020  29.034   4.369  0.1736  0.1375 -0.0053
    1DIPC   C4A20168  25.034  28.737   4.711 -0.0533 -0.3543 -0.2415
    1DIPC   C1B20169  24.478  29.723   4.288 -0.1515  0.0838  0.3743
    1DIPC   D2B20170  24.652  29.406   4.390  0.0090 -0.0762 -0.2885
    1DIPC   D3B20171  25.054  29.701   4.516  0.2635  0.4270 -0.0788
    1DIPC   C4B20172  24.752   0.095   4.842  0.1986 -0.0115  0.1010
    1DIPC   NC320173  20.271  22.972   1.732  0.4552 -0.2883 -0.3197
    1DIPC   PO420174  20.487  23.429   1.883 -0.2375 -0.0714 -0.0911
    1DIPC   GL120175  20.393  23.484   2.428  0.1708 -0.1568  0.0773
    1DIPC   GL220176  20.180  23.251   2.634  0.0748 -0.0302 -0.0835
    1DIPC   C1A20177  20.417  23.574   2.936  0.1184 -0.0895 -0.1849
    1DIPC   D2A20178  20.733  23.522   3.287  0.0821 -0.1604  0.1964
    1DIPC   D3A20179  20.269  23.451   3.562  0.0434 -0.3206  0.0494
    1DIPC   C4A20180  20.307  23.702   4.018  0.2495  0.2530  0.2505
    1DIPC   C1B20181  20.150  23.182   3.102 -0.0435 -0.1031 -0.2715
    1DIPC   D2B20182  20.128  22.925   3.378  0.2314 -0.1140  0.1765
    1DIPC   D3B20183  19.953  22.638   3.197  0.0450  0.3714  0.3244
    1DIPC   C4B20184  20.064  22.354   2.885  0.1654 -0.0752  0.0455
    1DIPC   NC320185   9.536   4.938   3.646 -0.0647 -0.0534 -0.1118
    1DIPC   PO420186   9.321   5.329   3.564  0.4398 -0.3053  0.2207
    1DIPC   GL120187   9.486   5.541   3.849  0.0733  0.0303 -0.1877
    1DIPC   GL220188   9.299   5.671   4.036 -0.2285 -0.4399  0.1203
    1DIPC   C1A20189   9.599   5.428   4.310 -0.1081 -0.0240 -0.4331
    1DIPC   D2A20190   9.544   5.335   4.766  0.1863 -0.2067  0.0087
    1DIPC   D3A20191   9.710   5.124   5.186  0.3309 -0.2113  0.0036
    1DIPC   C4A20192  10.105   5.259   5.465  0.4665 -0.4763 -0.0440
    1DIPC   C1B20193   9.146   5.486   4.420 -0.1600 -0.0424  0.3150
    1DIPC   D2B20194   9.142   5.547   4.910 -0.0218 -0.2225 -0.0088
    1DIPC   D3B20195   9.023   5.187   4.955 -0.2930 -0.3081 -0.0520
    1DIPC   C4B20196   8.691   5.066   5.125 -0.2575  0.2474 -0.2042
    1DIPC   NC320197   7.650   1.408   2.473 -0.0822 -0.1771  0.1807
    1DIPC   PO420198   7.512   1.600   2.867  0.1930  0.2370 -0.1735
    1DIPC   GL120199   7.382   1.616   3.216  0.0207 -0.0255  0.1196
    1DIPC   GL220200   7.095   1.784   3.264  0.2292  0.0710  0.0409
    1DIPC   C1A20201   7.596   1.805   3.536 -0.0314 -0.1912 -0.2080
    1DIPC   D2A20202   7.857   1.998   3.839 -0.3753  0.0167 -0.2688
    1DIPC   D3A20203   7.893   2.396   3.762  0.1860 -0.5139  0.1226
    1DIPC   C4A20204   8.224   2.534   4.125 -0.2015 -0.1723 -0.1369
    1DIPC   C1B20205   6.866   1.827   3.637 -0.0907 -0.3975  0.0218
    1DIPC   D2B20206   6.639   1.834   3.923 -0.3560 -0.3665 -0.1531
    1DIPC   D3B20207   6.350   1.490   3.943 -0.1369 -0.0637  0.2602
    1DIPC   C4B20208   6.471   1.063   4.175 -0.2956 -0.1987  0.1496
    1DIPC   NC320209  12.993  27.555   2.743  0.2140  0.0701 -0.0639
    1DIPC   PO420210  13.171  27.199   2.836 -0.0769  0.4295  0.1987
    1DIPC   GL120211  13.141  26.981   3.137  0.1035  0.0084 -0.2990
    1DIPC   GL220212  12.922  26.765   3.071  0.1216  0.1493 -0.2828
    1DIPC   C1A20213  13.411  26.708   3.335  0.1002 -0.0501  0.0252
    1DIPC   D2A20214  13.723  26.786   3.741 -0.1777  0.2697 -0.4417
    1DIPC   D3A20215  13.933  27.004   3.440 -0.1323 -0.1845 -0.1988
    1DIPC   C4A20216  14.308  27.303   3.435 -0.1898  0.1180  0.0934
    1DIPC   C1B20217  12.681  26.782   3.391 -0.3373 -0.0235 -0.2649
    1DIPC   D2B20218  12.293  26.653   3.653  0.0117 -0.0784  0.1069
    1DIPC   D3B20219  12.526  26.301   3.841  0.3703  0.0886  0.2612
    1DIPC   C4B20220  12.317  25.953   3.912 -0.0679  0.0234 -0.2614
    1DIPC   NC320221  19.271  21.014   1.292 -0.3134 -0.0981  0.0782
    1DIPC   PO420222  19.012  21.111   1.603  0.0976  0.0854 -0.0071
    1DIPC   GL120223  18.716  21.272   1.917  0.1819  0.0147 -0.3407
    1DIPC   GL220224  18.631  20.937   2.108 -0.1085  0.2163 -0.1313
    1DIPC   C1A20225  18.515  21.535   2.179  0.3374 -0.0412  0.2363
    1DIPC   D2A20226  18.433  21.885   2.473 -0.0127 -0.4042  0.0171
    1DIPC   D3A20227  18.603  22.244   2.287  0.0464 -0.1078  0.2624
    1DIPC   C4A20228  18.395  22.508   2.114 -0.0859  0.0015  0.1442
    1DIPC   C1B20229  18.807  20.692   2.513 -0.0594  0.0686  0.2440
    1DIPC   D2B20230  19.163  20.787   2.703  0.1340 -0.1149 -0.1273
    1DIPC   D3B20231  19.328  21.149   2.772 -0.0541 -0.0167 -0.3168
    1DIPC   C4B20232  19.486  21.337   3.036  0.1272  0.0107 -0.1200
    1DIPC   NC320233   0.263   0.923   2.294 -0.0330 -0.1372 -0.1887
    1DIPC   PO420234   0.691   0.907   2.466 -0.3184 -0.3468 -0.4389
    1DIPC   GL120235   0.699   0.871   2.893  0.0726 -0.3508 -0.1933
    1DIPC   GL220236   0.691   1.078   3.158 -0.0831  0.5086 -0.0862
    1DIPC   C1A20237   0.885   0.543   3.043 -0.2508  0.1234  0.0085
    1DIPC   D2A20238   1.246   0.341   2.856 -0.1823 -0.2753 -0.0424
    1DIPC   D3A20239   1.423  29.841   2.988  0.0029 -0.1221 -0.1117
    1DIPC   C4A20240   1.904  29.775   2.912 -0.0752 -0.0232 -0.0784
    1DIPC   C1B20241   1.084   1.075   3.431 -0.0638 -0.2229  0.0633
    1DIPC   D2B20242   1.383   0.929   3.744  0.1547  0.1399 -0.0007
    1DIPC   D3B20243   1.019   0.733   4.010 -0.2847  0.0882 -0.0120
    1DIPC   C4B20244   1.176   0.395   4.278 -0.1118 -0.0331 -0.1198
    1DIPC   NC320245  14.205  19.292   1.939 -0.2436 -0.1477 -0.0517
    1DIPC   PO420246  14.546  19.054   2.106 -0.3973  0.1935 -0.0783
    1DIPC   GL120247  14.663  18.995   2.537 -0.1970  0.1142 -0.0342
    1DIPC   GL220248  14.891  19.193   2.620  0.1136 -0.1936  0.0785
    1DIPC   C1A20249  14.545  18.992   2.924 -0.1213  0.1627 -0.0175
    1DIPC   D2A20250  14.463  18.899   3.329 -0.1161  0.1324 -0.3095
    1DIPC   D3A20251  14.510  18.736   3.771 -0.3094  0.1009  0.4022
    1DIPC   C4A20252  14.761  18.948   4.122  0.0513 -0.2152  0.3678
    1DIPC   C1B20253  14.941  19.242   3.075  0.1402  0.0628 -0.0944
    1DIPC   D2B20254  15.012  19.015   3.410  0.0117 -0.1598  0.1030
    1DIPC   D3B20255  14.693  19.217   3.674 -0.1616 -0.0162  0.0030
    1DIPC   C4B20256  14.611  19.691   3.644 -0.1624  0.0474  0.2045
    1DIPC   NC320257   2.077  18.188   2.063 -0.0880  0.1900  0.1415
    1DIPC   PO420258   1.713  18.346   2.268 -0.0453 -0.0786 -0.0447
    1DIPC   GL120259   1.530  18.353   2.624 -0.1108  0.0465  0.0393
    1DIPC   GL220260   1.358  18.532   2.709  0.1302  0.1381  0.0312
    1DIPC   C1A20261   1.663  18.485   3.079  0.1890 -0.2630 -0.1242
    1DIPC   D2A20262   1.754  18.429   3.510 -0.0118 -0.0834 -0.0263
    1DIPC   D3A20263   1.600  18.837   3.818 -0.0795  0.0235  0.0260
    1DIPC   C4A20264   1.229  19.124   3.856 -0.0875 -0.3956 -0.1071
    1DIPC   C1B20265   1.080  18.504   3.078 -0.0617 -0.0219  0.0343
    1DIPC   D2B20266   0.614  18.347   3.119  0.1776  0.2899 -0.1279
    1DIPC   D3B20267   0.394  18.099   3.464  0.4091  0.4764 -0.0997
    1DIPC   C4B20268   0.411  18.281   3.779  0.2108  0.0945 -0.0316
    1DIPC   NC320269   4.438  24.444   1.751  0.0595 -0.1363 -0.0420
    1DIPC   PO420270   4.541  24.182   2.065 -0.0508 -0.0688  0.0374
    1DIPC   GL120271   4.558  24.102   2.521 -0.2351 -0.0750  0.0358
    1DIPC   GL220272   4.652  23.924   2.620 -0.0411  0.1958  0.0845
    1DIPC   C1A20273   4.548  24.380   2.886  0.0691 -0.2133 -0.0910
    1DIPC   D2A20274   4.538  24.483   3.293  0.0342  0.1904 -0.2842
    1DIPC   D3A20275   4.945  24.741   3.462  0.0317  0.0314 -0.1004
    1DIPC   C4A20276   4.855  25.045   3.836 -0.2243 -0.1117 -0.1521
    1DIPC   C1B20277   5.017  24.034   2.752  0.2529 -0.0127  0.0532
    1DIPC   D2B20278   5.308  24.000   3.129  0.1770  0.0754  0.1265
    1DIPC   D3B20279   4.879  23.907   3.266 -0.2687 -0.0335  0.6972
    1DIPC   C4B20280   4.510  23.928   3.111  0.2696  0.3435 -0.3249
    1DIPC   NC320281  10.468  23.876   1.773  0.3060 -0.1549  0.3151
    1DIPC   PO420282  10.452  23.356   1.773 -0.1737  0.1910  0.0359
    1DIPC   GL120283  10.542  23.245   2.269 -0.4309 -0.0075 -0.0431
    1DIPC   GL220284  10.517  22.877   2.207  0.2196 -0.1578 -0.1180
    1DIPC   C1A20285  10.539  23.019   2.732 -0.0732 -0.3857  0.2322
    1DIPC   D2A20286  10.300  22.770   2.947  0.3113 -0.3048  0.0882
    1DIPC   D3A20287  10.411  22.947   3.350  0.1387  0.5644  0.3614
    1DIPC   C4A20288  10.207  22.830   3.756 -0.1929 -0.0448 -0.0015
    1DIPC   C1B20289  10.638  22.607   2.521  0.1801  0.1328  0.3709
    1DIPC   D2B20290  10.782  22.531   2.935 -0.1610  0.0443 -0.1066
    1DIPC   D3B20291  10.963  22.681   3.243 -0.2771 -0.0325 -0.1302
    1DIPC   C4B20292  10.624  22.623   3.701 -0.0005 -0.1280 -0.0766
    1DIPC   NC320293   6.602  11.032   2.853  0.0743  0.1424 -0.0372
    1DIPC   PO420294   6.910  10.802   2.861 -0.0509  0.0386 -0.0730
    1DIPC   GL120295   6.999  10.868   3.258  0.0041 -0.3172  0.0338
    1DIPC   GL220296   6.901  11.083   3.296 -0.1078 -0.1422 -0.0014
    1DIPC   C1A20297   7.040  10.845   3.704 -0.1534 -0.0607  0.1226
    1DIPC   D2A20298   6.989  10.751   4.130 -0.0006  0.1384 -0.0958
    1DIPC   D3A20299   6.735  10.892   4.467 -0.2612 -0.0029  0.0464
    1DIPC   C4A20300   6.307  10.984   4.345 -0.0924  0.0672 -0.0069
    1DIPC   C1B20301   6.832  11.440   3.603  0.1926  0.0446 -0.2353
    1DIPC   D2B20302   7.030  11.737   3.847 -0.0448  0.0560  0.1267
    1DIPC   D3B20303   7.240  11.738   4.280 -0.0319  0.2953  0.1803
    1DIPC   C4B20304   7.093  12.119   4.500  0.0398 -0.0024  0.2746
    1DIPC   NC320305  12.815   0.357   3.044  0.0192  0.0331 -0.1044
    1DIPC   PO420306  12.753   0.494   3.541  0.1131  0.1124  0.0864
    1DIPC   GL120307  12.893   0.473   4.037  0.1532  0.1899 -0.1777
    1DIPC   GL220308  13.215   0.620   4.105 -0.0075 -0.0706 -0.3399
    1DIPC   C1A20309  12.843   0.490   4.458  0.1043  0.1082 -0.0921
    1DIPC   D2A20310  12.827   0.308   4.865 -0.0252 -0.1280 -0.0636
    1DIPC   D3A20311  12.942   0.513   5.261 -0.0421 -0.1924 -0.1231
    1DIPC   C4A20312  13.333   0.728   5.458 -0.1232  0.0129 -0.1339
    1DIPC   C1B20313  13.397   0.904   4.404 -0.3089  0.1878  0.1106
    1DIPC   D2B20314  13.730   1.105   4.703 -0.2089 -0.2031  0.0128
    1DIPC   D3B20315  13.306   0.877   4.898 -0.2987  0.1540  0.0088
    1DIPC   C4B20316  13.306   0.418   4.572  0.3198  0.1995  0.0956
    1DIPC   NC320317   6.687  17.361   2.306  0.3269 -0.1740  0.1169
    1DIPC   PO420318   6.586  17.716   2.513  0.1988  0.0812  0.0372
    1DIPC   GL120319   6.574  17.971   2.818  0.0920 -0.0609  0.0569
    1DIPC   GL220320   6.299  18.005   3.018 -0.1648  0.3160  0.1326
    1DIPC   C1A20321   6.821  18.049   3.195 -0.0225 -0.2679 -0.3409
    1DIPC   D2A20322   6.888  17.959   3.529 -0.0696  0.0517  0.2655
    1DIPC   D3A20323   7.002  18.083   3.872  0.2669 -0.2446 -0.2431
    1DIPC   C4A20324   6.801  17.973   4.254 -0.0168  0.2410 -0.0363
    1DIPC   C1B20325   6.425  18.385   3.305 -0.1949  0.0161  0.2673
    1DIPC   D2B20326   6.254  18.740   3.578  0.2492  0.2410 -0.1162
    1DIPC   D3B20327   6.292  19.117   3.793 -0.1072  0.0962 -0.1009
    1DIPC   C4B20328   5.865  19.415   3.794 -0.1254  0.1717  0.1671
    1DIPC   NC320329   0.222  17.726   3.014 -0.1717 -0.1328 -0.0197
    1DIPC   PO420330   0.024  17.332   3.025 -0.0719  0.0773 -0.1988
    1DIPC   GL120331   0.297  17.296   3.289 -0.0973  0.0928  0.1996
    1DIPC   GL220332   0.502  17.615   3.379  0.0096 -0.3510  0.2742
    1DIPC   C1A20333   0.480  17.246   3.683  0.0012  0.3101 -0.2126
    1DIPC   D2A20334   0.449  17.019   4.130 -0.1762 -0.2318 -0.0999
    1DIPC   D3A20335   0.748  17.221   4.091  0.1596  0.1861 -0.1095
    1DIPC   C4A20336   0.833  17.314   4.610  0.0745  0.1375  0.2194
    1DIPC   C1B20337   0.671  17.834   3.807  0.3628 -0.0699 -0.1785
    1DIPC   D2B20338   0.889  17.730   4.185  0.1980 -0.2792 -0.0655
    1DIPC   D3B20339   1.130  17.767   4.459  0.3353 -0.1762  0.0581
    1DIPC   C4B20340   1.457  17.918   4.300 -0.0541  0.1781  0.0442
    1DIPC   NC320341   7.195  15.975   2.628  0.1646 -0.0953 -0.0045
    1DIPC   PO420342   7.589  16.116   2.457  0.1049 -0.0955 -0.2432
    1DIPC   GL120343   7.645  16.420   2.790 -0.1069  0.3240 -0.0314
    1DIPC   GL220344   7.440  16.598   2.986  0.2780  0.2364 -0.1985
    1DIPC   C1A20345   7.917  16.535   3.160  0.2038 -0.1046 -0.3697
    1DIPC   D2A20346   8.316  16.670   3.345  0.4818  0.1175  0.2346
    1DIPC   D3A20347   7.986  16.859   3.562  0.1208  0.1933  0.0489
    1DIPC   C4A20348   7.569  16.743   3.381 -0.0692  0.0268 -0.1291
    1DIPC   C1B20349   7.488  16.257   3.227  0.0734  0.2222 -0.0894
    1DIPC   D2B20350   7.285  16.075   3.550  0.1171 -0.1748 -0.0120
    1DIPC   D3B20351   6.869  16.230   3.789  0.1422 -0.1451  0.1064
    1DIPC   C4B20352   6.635  16.573   3.758  0.0039  0.2460 -0.0387
    1DIPC   NC320353   2.878   1.052   2.678  0.0172 -0.0072 -0.1851
    1DIPC   PO420354   3.016   1.295   3.157 -0.1345  0.0262  0.1182
    1DIPC   GL120355   3.179   0.897   3.085  0.2860  0.0687 -0.0129
    1DIPC   GL220356   2.799   0.724   3.109 -0.0371 -0.1396 -0.0357
    1DIPC   C1A20357   3.455   0.710   3.331  0.0205 -0.4705 -0.1108
    1DIPC   D2A20358   3.430   0.426   3.637  0.1302 -0.0873  0.0330
    1DIPC   D3A20359   3.185   0.481   4.015  0.0113 -0.2006 -0.1888
    1DIPC   C4A20360   2.881   0.232   4.229 -0.4026  0.0404 -0.0303
    1DIPC   C1B20361   3.018   0.714   3.531  0.1344  0.4966  0.1773
    1DIPC   D2B20362   3.003   1.175   3.663 -0.5246 -0.1501  0.4263
    1DIPC   D3B20363   3.057   0.990   4.097 -0.0080 -0.0877  0.0144
    1DIPC   C4B20364   3.440   1.059   4.417  0.0063  0.2244 -0.0174
    1DIPC   NC320365   2.142   2.740   3.111  0.0448  0.4782 -0.1808
    1DIPC   PO420366   1.890   3.124   3.158  0.0987 -0.0516  0.0649
    1DIPC   GL120367   1.954   3.105   3.511 -0.0337 -0.0428 -0.0400
    1DIPC   GL220368   1.630   3.065   3.613  0.0187 -0.0393 -0.3940
    1DIPC   C1A20369   2.259   3.102   3.917 -0.1281 -0.1695  0.3572
    1DIPC   D2A20370   2.318   3.378   4.241  0.1625  0.0255 -0.0362
    1DIPC   D3A20371   2.450   3.068   4.544 -0.1578 -0.0617  0.1882
    1DIPC   C4A20372   2.506   3.103   4.964  0.1210  0.1180 -0.0580
    1DIPC   C1B20373   1.515   3.258   3.970  0.1064 -0.1574  0.0873
    1DIPC   D2B20374   1.273   3.125   4.367 -0.2011  0.1463 -0.0413
    1DIPC   D3B20375   1.457   2.732   4.320 -0.2692 -0.0982 -0.5129
    1DIPC   C4B20376   1.402   2.372   4.682 -0.2844  0.0474 -0.2740
    1DIPC   NC320377  25.910  22.190   2.657 -0.1525 -0.0014  0.2490
    1DIPC   PO420378  26.157  22.216   3.120 -0.2014  0.2316  0.0815
    1DIPC   GL120379  26.170  22.099   3.587  0.0941  0.4306 -0.2254
    1DIPC   GL220380  25.822  22.093   3.482  0.0161 -0.1002 -0.1148
    1DIPC   C1A20381  26.281  21.948   3.885  0.3417 -0.0342  0.2808
    1DIPC   D2A20382  26.473  21.921   4.286  0.1444 -0.0918 -0.1574
    1DIPC   D3A20383  26.217  21.983   4.677 -0.0272 -0.0002  0.0644
    1DIPC   C4A20384  26.347  22.237   4.994  0.0826  0.2617 -0.1904
    1DIPC   C1B20385  25.757  21.826   3.757 -0.3367  0.2414 -0.0464
    1DIPC   D2B20386  25.717  21.514   4.040  0.5171  0.0842  0.0092
    1DIPC   D3B20387  25.865  21.696   4.352  0.2146  0.3969 -0.2412
    1DIPC   C4B20388  25.797  22.182   4.425  0.0095 -0.0228 -0.0622
    1DIPC   NC320389   5.930  11.845   2.608  0.1266 -0.0452 -0.0658
    1DIPC   PO420390   5.517  11.590   2.551 -0.0585  0.0306 -0.0452
    1DIPC   GL120391   5.639  11.677   2.986  0.1891 -0.1077 -0.1077
    1DIPC   GL220392   5.508  11.393   3.022  0.1127 -0.0171 -0.1511
    1DIPC   C1A20393   5.476  11.770   3.353 -0.1919  0.2329  0.1368
    1DIPC   D2A20394   5.614  11.904   3.730  0.2929 -0.0211  0.2565
    1DIPC   D3A20395   5.957  11.639   3.794  0.1622  0.3477 -0.1525
    1DIPC   C4A20396   5.965  11.257   4.011  0.0387  0.0080 -0.0125
    1DIPC   C1B20397   5.112  11.388   3.288  0.0274  0.2788 -0.1703
    1DIPC   D2B20398   5.047  11.282   3.639  0.1141 -0.0633 -0.0079
    1DIPC   D3B20399   4.583  11.176   3.681 -0.2147 -0.0775  0.1155
    1DIPC   C4B20400   4.244  11.213   3.960 -0.1261  0.3642 -0.1452
    1DIPC   NC320401  11.938   5.506   3.452  0.0885 -0.0764  0.1623
    1DIPC   PO420402  12.028   5.007   3.601  0.2674  0.0541 -0.2373
    1DIPC   GL120403  12.022   5.199   4.011  0.0066 -0.0740 -0.0797
    1DIPC   GL220404  11.994   4.999   4.251 -0.6569 -0.1450 -0.2217
    1DIPC   C1A20405  12.141   5.538   4.324 -0.0951  0.0646  0.0516
    1DIPC   D2A20406  11.830   5.748   4.703  0.2018 -0.1711  0.0520
    1DIPC   D3A20407  11.634   5.622   5.123 -0.2648 -0.1013 -0.2205
    1DIPC   C4A20408  11.264   5.406   5.222 -0.0304 -0.0125 -0.2356
    1DIPC   C1B20409  11.782   5.238   4.565  0.0639 -0.1603  0.0622
    1DIPC   D2B20410  11.346   5.416   4.677  0.0525 -0.0857  0.3761
    1DIPC   D3B20411  11.301   5.841   4.602  0.0439  0.1031 -0.1740
    1DIPC   C4B20412  11.409   6.082   4.919 -0.0332  0.2811  0.0584
    1DIPC   NC320413  25.939  17.228   2.657 -0.0058  0.1307 -0.0123
    1DIPC   PO420414  26.274  16.947   2.807 -0.1406  0.0263 -0.0008
    1DIPC   GL120415  26.132  17.049   3.109 -0.3552  0.1474  0.1166
    1DIPC   GL220416  26.515  17.178   3.310  0.0971 -0.0742  0.0049
    1DIPC   C1A20417  25.977  16.941   3.457 -0.5170 -0.2134  0.0516
    1DIPC   D2A20418  26.005  17.087   3.854  0.0467  0.1693  0.3470
    1DIPC   D3A20419  26.070  17.600   3.906 -0.0719 -0.2329  0.0939
    1DIPC   C4A20420  25.665  17.863   3.866  0.0522 -0.0677  0.0501
    1DIPC   C1B20421  26.463  16.773   3.560  0.1847 -0.0983  0.0153
    1DIPC   D2B20422  26.696  16.593   3.882 -0.2612 -0.4218  0.3300
    1DIPC   D3B20423  26.960  16.840   4.224 -0.0511 -0.0680 -0.3188
    1DIPC   C4B20424  26.804  17.315   4.118  0.0586  0.0672  0.0419
    1DIPC   NC320425   3.803   2.430   3.142 -0.0098 -0.0872 -0.1262
    1DIPC   PO420426   4.182   2.717   3.020 -0.1655 -0.0285 -0.0862
    1DIPC   GL120427   4.172   2.756   3.341 -0.0057  0.0136 -0.0950
    1DIPC   GL220428   4.064   3.091   3.663  0.0706  0.2326  0.1129
    1DIPC   C1A20429   4.156   2.553   3.755  0.2878  0.2095 -0.1902
    1DIPC   D2A20430   4.261   2.617   4.244 -0.1630  0.0215  0.0336
    1DIPC   D3A20431   3.814   2.399   4.349 -0.0832  0.2261  0.0727
    1DIPC   C4A20432   3.880   2.019   4.252 -0.1270  0.0219 -0.1346
    1DIPC   C1B20433   3.796   2.906   4.035  0.1362 -0.4287  0.3569
    1DIPC   D2B20434   3.370   2.782   4.248 -0.1938  0.1180 -0.1170
    1DIPC   D3B20435   3.228   2.856   3.784  0.2981 -0.3509 -0.2678
    1DIPC   C4B20436   2.826   3.024   3.837  0.2837 -0.1026  0.2474
    1DIPC   NC320437  12.653  22.457   1.298  0.1394  0.0143  0.0492
    1DIPC   PO420438  12.753  22.746   1.669  0.0857 -0.1856 -0.1628
    1DIPC   GL120439  13.141  22.648   1.954 -0.2024 -0.1966  0.2778
    1DIPC   GL220440  13.386  22.679   1.832  0.1085 -0.0080 -0.1318
    1DIPC   C1A20441  13.227  22.419   2.412  0.3063 -0.2206 -0.1208
    1DIPC   D2A20442  13.400  22.488   2.823 -0.1615 -0.3344  0.1199
    1DIPC   D3A20443  13.450  22.569   3.208  0.0170  0.2370  0.0126
    1DIPC   C4A20444  13.308  22.771   3.541 -0.0810 -0.2371 -0.0395
    1DIPC   C1B20445  13.622  22.545   2.170 -0.2381  0.0453  0.1192
    1DIPC   D2B20446  13.668  22.131   2.498  0.0327 -0.3009 -0.4811
    1DIPC   D3B20447  13.806  21.870   2.808  0.2874 -0.2958  0.0963
    1DIPC   C4B20448  14.046  21.656   3.153 -0.0601 -0.0577  0.3441
    1DIPC   NC320449   6.879  24.692   2.416  0.3168  0.0635  0.0380
    1DIPC   PO420450   7.135  24.731   2.681  0.1204  0.3174  0.0063
    1DIPC   GL120451   7.115  24.584   3.041  0.2172  0.0363 -0.0375
    1DIPC   GL220452   7.140  24.828   3.242 -0.0217  0.3259 -0.0746
    1DIPC   C1A20453   7.092  24.333   3.344 -0.4192 -0.0129 -0.0107
    1DIPC   D2A20454   7.074  24.116   3.679 -0.1212  0.2683  0.4148
    1DIPC   D3A20455   6.825  23.866   3.472  0.1333  0.1491  0.0400
    1DIPC   C4A20456   6.874  23.921   3.082  0.0433 -0.0379  0.0686
    1DIPC   C1B20457   6.875  24.690   3.626 -0.2431 -0.0440 -0.3137
    1DIPC   D2B20458   6.684  24.591   3.976  0.1511  0.0581  0.4156
    1DIPC   D3B20459   6.345  24.749   3.753  0.2690  0.1700 -0.0380
    1DIPC   C4B20460   6.028  24.477   3.821 -0.0056  0.1188 -0.2585
    1DIPC   NC320461  28.778   0.365   2.133 -0.0751  0.0465  0.0562
    1DIPC   PO420462  29.049   0.392   2.465 -0.1393  0.0071  0.2646
    1DIPC   GL120463  28.990   0.357   2.877 -0.1743  0.0125  0.1889
    1DIPC   GL220464  29.301   0.539   2.952  0.1586  0.1586  0.2094
    1DIPC   C1A20465  29.075   0.463   3.380  0.0636  0.1781 -0.1499
    1DIPC   D2A20466  28.846   0.711   3.619 -0.0239 -0.2415  0.0382
    1DIPC   D3A20467  28.502   0.704   3.915 -0.2808  0.1915  0.2533
    1DIPC   C4A20468  28.388   0.496   4.340 -0.2687  0.2652 -0.2154
    1DIPC   C1B20469  29.326   0.954   3.341 -0.0012 -0.1829 -0.1777
    1DIPC   D2B20470  29.223   1.031   3.793  0.0895 -0.0138 -0.0243
    1DIPC   D3B20471  29.249   0.756   4.229  0.0454 -0.2535  0.3165
    1DIPC   C4B20472  28.903   0.485   4.338  0.1392  0.1931 -0.3677
    1DIPC   NC320473   7.446  13.160   2.384  0.1266 -0.3115  0.2262
    1DIPC   PO420474   7.802  13.168   2.556 -0.0759 -0.3118  0.0466
    1DIPC   GL120475   7.971  13.159   2.951 -0.1629  0.1739 -0.1617
    1DIPC   GL220476   7.956  12.927   3.009 -0.1252 -0.0474  0.0123
    1DIPC   C1A20477   8.002  13.305   3.310  0.2011 -0.1313 -0.1923
    1DIPC   D2A20478   7.999  13.619   3.556  0.0203  0.0690  0.0355
    1DIPC   D3A20479   7.767  13.538   3.858 -0.0206  0.0783 -0.0988
    1DIPC   C4A20480   7.491  13.843   3.872  0.1805 -0.0438 -0.0470
    1DIPC   C1B20481   7.495  13.110   3.133 -0.0489  0.0045 -0.1032
    1DIPC   D2B20482   7.159  13.359   3.061  0.0016 -0.0423 -0.0587
    1DIPC   D3B20483   7.096  13.713   3.144 -0.0271 -0.0758 -0.3537
    1DIPC   C4B20484   7.070  13.828   3.558 -0.0855  0.0586  0.0680
    1DIPC   NC320485  12.163  11.833   2.626  0.1223 -0.2754  0.1013
    1DIPC   PO420486  12.315  11.746   2.937 -0.0376 -0.0072 -0.3040
    1DIPC   GL120487  12.326  11.648   3.282 -0.3182  0.4433 -0.3232
    1DIPC   GL220488  12.155  11.853   3.584  0.0425 -0.0667  0.0142
    1DIPC   C1A20489  12.312  11.425   3.722 -0.0731  0.0565 -0.3914
    1DIPC   D2A20490  12.251  11.603   4.195  0.3523 -0.0361  0.0344
    1DIPC   D3A20491  12.195  11.269   4.398 -0.0180  0.1520 -0.1897
    1DIPC   C4A20492  11.804  11.199   4.342 -0.2406 -0.0461  0.3654
    1DIPC   C1B20493  12.359  12.005   3.891 -0.0093  0.0404  0.0290
    1DIPC   D2B20494  12.583  11.969   4.302 -0.1437 -0.2180 -0.0818
    1DIPC   D3B20495  12.207  11.983   4.542 -0.1348 -0.4853 -0.0930
    1DIPC   C4B20496  11.839  11.786   4.492  0.3052  0.1125  0.1411
    1DIPC   NC320497   3.813  15.594   2.633 -0.0959 -0.1547  0.0054
    1DIPC   PO420498   3.593  15.402   3.019  0.1203 -0.0762  0.1702
    1DIPC   GL120499   3.617  15.572   3.425 -0.2016 -0.1648 -0.2259
    1DIPC   GL220500   3.346  15.541   3.636 -0.0453 -0.1189 -0.2195
    1DIPC   C1A20501   3.857  15.564   3.876 -0.1375 -0.0597 -0.1166
    1DIPC   D2A20502   3.886  15.544   4.375 -0.2727  0.0778 -0.0134
    1DIPC   D3A20503   3.763  15.149   4.291 -0.1521 -0.0389  0.0895
    1DIPC   C4A20504   3.905  14.780   4.280  0.0395 -0.0279 -0.2398
    1DIPC   C1B20505   3.423  15.633   4.106 -0.1441 -0.1111 -0.2001
    1DIPC   D2B20506   3.444  15.754   4.542 -0.3135  0.2356  0.0440
    1DIPC   D3B20507   3.655  16.156   4.238  0.1070  0.0306 -0.0832
    1DIPC   C4B20508   3.708  16.411   4.472  0.0689 -0.1774 -0.3301
    1DIPC   NC320509   3.756  29.842   2.184 -0.1279 -0.0861  0.3325
    1DIPC   PO420510   3.691   0.104   2.650 -0.0461 -0.1605 -0.1395
    1DIPC   GL120511   3.539   0.112   3.041  0.0050  0.1153  0.4055
    1DIPC   GL220512   3.304   0.377   2.985  0.2222  0.1506 -0.1740
    1DIPC   C1A20513   3.386  29.759   3.422  0.2702 -0.1845  0.3138
    1DIPC   D2A20514   3.523  29.483   3.796 -0.1080  0.0844  0.1329
    1DIPC   D3A20515   3.114  29.186   3.937 -0.1279 -0.1381  0.1810
    1DIPC   C4A20516   2.728  29.033   3.711 -0.1329  0.1655 -0.0293
    1DIPC   C1B20517   3.069   0.263   3.322  0.2270  0.0808 -0.1638
    1DIPC   D2B20518   2.767   0.366   3.637  0.0933  0.0605 -0.1638
    1DIPC   D3B20519   2.357   0.620   3.539 -0.1749  0.2578  0.0287
    1DIPC   C4B20520   1.984   0.367   3.715  0.4004  0.1929 -0.0091
    1DIPC   NC320521  27.825  29.623   2.620 -0.1070  0.1291  0.0956
    1DIPC   PO420522  28.251  29.641   2.685 -0.4136 -0.1363  0.1601
    1DIPC   GL120523  28.457  29.831   3.012  0.1199  0.2928  0.1238
    1DIPC   GL220524  28.280  29.718   3.361 -0.3895 -0.3156  0.1358
    1DIPC   C1A20525  28.831   0.022   3.160 -0.0311  0.0981  0.0387
    1DIPC   D2A20526  28.878  29.850   3.610  0.2537 -0.0582 -0.1526
    1DIPC   D3A20527  29.129   0.288   3.884 -0.0024  0.0451  0.5397
    1DIPC   C4A20528  29.495   0.320   4.134  0.1648 -0.2671  0.1613
    1DIPC   C1B20529  28.090  29.597   3.779 -0.1741 -0.2324  0.0255
    1DIPC   D2B20530  27.733  29.514   3.890  0.2030 -0.1092  0.0536
    1DIPC   D3B20531  27.413  29.851   4.043  0.2287  0.0217 -0.2635
    1DIPC   C4B20532  27.240   0.110   3.667  0.1547 -0.0149  0.1072
    1DIPC   NC320533  28.822  16.292   2.932 -0.0598 -0.1050 -0.2364
    1DIPC   PO420534  28.541  16.618   3.076  0.0561  0.0051  0.1102
    1DIPC   GL120535  28.742  16.394   3.494  0.0523 -0.0239  0.1469
    1DIPC   GL220536  28.860  16.615   3.700  0.0482 -0.0961  0.1821
    1DIPC   C1A20537  29.061  16.091   3.630  0.0108 -0.0807  0.0692
    1DIPC   D2A20538  29.312  15.744   3.776  0.0158  0.0342  0.1633
    1DIPC   D3A20539  29.268  15.643   4.240 -0.0449 -0.3845  0.2426
    1DIPC   C4A20540  29.520  15.915   4.450  0.1670  0.0662  0.0949
    1DIPC   C1B20541  28.996  16.483   4.102 -0.0629 -0.1542 -0.1835
    1DIPC   D2B20542  29.232  16.474   4.497 -0.2568  0.0067  0.0020
    1DIPC   D3B20543  29.632  16.373   4.480 -0.0948 -0.0183  0.0846
    1DIPC   C4B20544   0.040  16.314   4.065 -0.0522  0.0066  0.1991
    1DIPC   NC320545   1.932  25.742   1.665  0.1063  0.1929 -0.0875
    1DIPC   PO420546   1.601  25.574   1.976  0.1764 -0.0223 -0.1493
    1DIPC   GL120547   1.504  25.651   2.382 -0.1372 -0.3161  0.2340
    1DIPC   GL220548   1.254  25.602   2.570 -0.0744  0.0025  0.2005
    1DIPC   C1A20549   1.679  25.573   2.790  0.0636  0.0927 -0.0688
    1DIPC   D2A20550   1.636  25.762   3.198  0.2845  0.0129 -0.0554
    1DIPC   D3A20551   1.867  25.890   3.412  0.1164 -0.2854 -0.2142
    1DIPC   C4A20552   2.085  25.589   3.766  0.0917 -0.1494 -0.0958
    1DIPC   C1B20553   1.199  25.614   2.986 -0.2257 -0.1244  0.0371
    1DIPC   D2B20554   1.253  26.058   3.137 -0.0291 -0.0854 -0.1462
    1DIPC   D3B20555   1.445  26.170   3.490  0.1685  0.0031  0.0583
    1DIPC   C4B20556   1.549  26.531   3.660  0.1983 -0.1082 -0.0727
    1DIPC   NC320557  18.735  22.075   1.356 -0.1651 -0.1570  0.1501
    1DIPC   PO420558  19.039  22.070   1.656 -0.3235 -0.2697  0.3148
    1DIPC   GL120559  19.330  22.114   2.082  0.2408 -0.0919 -0.0199
    1DIPC   GL220560  19.134  22.329   2.150  0.1583 -0.0862 -0.1501
    1DIPC   C1A20561  19.335  22.115   2.601  0.0044  0.0850 -0.1334
    1DIPC   D2A20562  19.488  22.376   2.863 -0.0414 -0.0695  0.1586
    1DIPC   D3A20563  19.620  22.231   3.250 -0.1382 -0.5014 -0.4011
    1DIPC   C4A20564  19.446  22.434   3.580  0.0879 -0.0421  0.1189
    1DIPC   C1B20565  19.002  22.524   2.525 -0.0378 -0.0349 -0.0426
    1DIPC   D2B20566  18.710  22.629   2.901  0.0848 -0.3153  0.0028
    1DIPC   D3B20567  18.640  22.356   3.189  0.1211  0.3106  0.1687
    1DIPC   C4B20568  18.471  22.417   3.615  0.0809  0.0065 -0.1031
    1DIPC   NC320569  12.054  13.730   2.385  0.0729  0.1893 -0.2721
    1DIPC   PO420570  12.543  13.641   2.477  0.0088  0.1527  0.1611
    1DIPC   GL120571  12.488  13.801   2.827  0.0099 -0.0874  0.0479
    1DIPC   GL220572  12.146  13.938   2.930 -0.1795  0.1408 -0.2585
    1DIPC   C1A20573  12.713  13.879   3.184  0.1718  0.0663  0.1143
    1DIPC   D2A20574  12.454  14.003   3.420  0.0784 -0.0345 -0.0138
    1DIPC   D3A20575  12.468  13.609   3.571  0.1000  0.0052  0.3206
    1DIPC   C4A20576  12.833  13.583   3.881  0.2236  0.4257  0.1110
    1DIPC   C1B20577  12.058  13.710   3.241  0.2572  0.0308  0.0846
    1DIPC   D2B20578  11.878  13.740   3.599  0.3224 -0.1176  0.0634
    1DIPC   D3B20579  12.076  13.416   3.811  0.0853 -0.0484  0.4873
    1DIPC   C4B20580  12.306  13.547   4.098 -0.1217  0.1413 -0.1101
    1DIPC   NC320581   1.480  16.398   2.032 -0.1472 -0.0292 -0.1039
    1DIPC   PO420582   1.249  16.102   2.275  0.1672 -0.0030  0.1296
    1DIPC   GL120583   1.236  16.063   2.728  0.1514  0.0492  0.1793
    1DIPC   GL220584   1.158  16.287   2.931 -0.4400 -0.2283  0.0056
    1DIPC   C1A20585   1.489  15.809   3.009 -0.2043  0.2146  0.1944
    1DIPC   D2A20586   1.951  16.007   3.144 -0.0986  0.0555  0.0304
    1DIPC   D3A20587   1.762  15.743   3.472 -0.0795  0.0494  0.0853
    1DIPC   C4A20588   1.733  15.379   3.285  0.0307 -0.0020 -0.1651
    1DIPC   C1B20589   1.031  15.883   3.226  0.3135  0.0248  0.0552
    1DIPC   D2B20590   0.670  15.605   3.271  0.3579 -0.2230  0.1269
    1DIPC   D3B20591   0.773  15.083   3.365  0.2232 -0.1993  0.0939
    1DIPC   C4B20592   0.889  14.899   3.777 -0.0499  0.1924 -0.0122
    1DIPC   NC320593   0.762  13.759   2.831 -0.3007  0.0619  0.1949
    1DIPC   PO420594   0.293  13.801   2.911 -0.0947  0.0643  0.1293
    1DIPC   GL120595  29.823  14.061   3.163 -0.0328  0.0054 -0.2410
    1DIPC   GL220596   0.134  14.375   3.271  0.0764 -0.0447 -0.1542
    1DIPC   C1A20597  29.504  14.014   3.400  0.1956 -0.0947  0.2784
    1DIPC   D2A20598  29.285  13.830   3.817 -0.1147 -0.2619  0.1347
    1DIPC   D3A20599  29.570  13.805   4.205 -0.0342  0.1351 -0.3004
    1DIPC   C4A20600   0.121  13.622   4.224  0.0327 -0.3900 -0.0725
    1DIPC   C1B20601   0.032  14.359   3.616  0.0073  0.0237 -0.0026
    1DIPC   D2B20602   0.220  14.210   4.037  0.4113  0.2234  0.3197
    1DIPC   D3B20603   0.233  14.445   4.440 -0.4021  0.0072  0.3886
    1DIPC   C4B20604  29.809  14.143   4.674  0.1542 -0.1811 -0.0194
    1DIPC   NC320605  25.179   2.432   3.090  0.0512 -0.3262  0.1862
    1DIPC   PO420606  25.340   2.012   3.106  0.2238  0.2169 -0.1842
    1DIPC   GL120607  25.447   2.130   3.494 -0.0781  0.1499  0.3205
    1DIPC   GL220608  25.285   2.323   3.562  0.1473  0.1607  0.0337
    1DIPC   C1A20609  25.568   2.289   3.987  0.0883 -0.2423  0.0018
    1DIPC   D2A20610  25.535   2.033   4.331  0.1831 -0.0308  0.4270
    1DIPC   D3A20611  25.916   1.931   4.045 -0.1946  0.1245 -0.0031
    1DIPC   C4A20612  26.273   1.858   4.302 -0.1716  0.0876 -0.0362
    1DIPC   C1B20613  25.116   2.425   3.801 -0.2450  0.1264 -0.1038
    1DIPC   D2B20614  25.155   2.341   4.220  0.2097  0.0379 -0.2227
    1DIPC   D3B20615  25.505   2.524   4.406 -0.2192 -0.3449 -0.0655
    1DIPC   C4B20616  25.424   2.774   4.849 -0.0692 -0.0804 -0.0662
    1DIPC   NC320617   2.064   8.295   2.278  0.1500  0.0378 -0.1914
    1DIPC   PO420618   1.862   7.944   2.104 -0.0336  0.0979  0.0251
    1DIPC   GL120619   1.788   7.947   2.538 -0.1064 -0.1029  0.1558
    1DIPC   GL220620   1.668   8.215   2.587 -0.0171 -0.0851 -0.3484
    1DIPC   C1A20621   1.695   7.992   3.025  0.1121  0.0991  0.0714
    1DIPC   D2A20622   1.659   8.400   3.290 -0.1565  0.2355 -0.0367
    1DIPC   D3A20623   2.096   8.571   3.153  0.0117 -0.0388 -0.1063
    1DIPC   C4A20624   2.373   8.556   3.311 -0.2110 -0.0050 -0.1804
    1DIPC   C1B20625   1.630   8.589   2.843  0.2932 -0.0468  0.0709
    1DIPC   D2B20626   1.296   8.766   3.088 -0.0599  0.0369 -0.1313
    1DIPC   D3B20627   1.045   8.723   3.502 -0.3558 -0.2028  0.2128
    1DIPC   C4B20628   0.815   9.015   3.745 -0.0172  0.0718 -0.1025
    1DIPC   NC320629  21.535   1.131   3.625  0.2262 -0.0819 -0.3568
    1DIPC   PO420630  21.417   1.491   3.801  0.2825 -0.0753  0.1153
    1DIPC   GL120631  21.464   1.279   4.186 -0.0355  0.2824  0.1300
    1DIPC   GL220632  21.674   1.100   4.090 -0.1705 -0.0275  0.2295
    1DIPC   C1A20633  21.147   1.277   4.609 -0.0062  0.4316  0.1161
    1DIPC   D2A20634  20.802   1.326   4.962  0.0345  0.0836 -0.0433
    1DIPC   D3A20635  21.015   1.004   4.999 -0.2143  0.1281  0.0020
    1DIPC   C4A20636  21.491   1.005   5.057 -0.0156  0.0542  0.0340
    1DIPC   C1B20637  21.879   1.062   4.295  0.0872 -0.3542 -0.2976
    1DIPC   D2B20638  21.854   1.324   4.561 -0.2398 -0.1293  0.4037
    1DIPC   D3B20639  22.324   1.479   4.597  0.0643  0.2999 -0.2789
    1DIPC   C4B20640  22.436   1.550   5.013  0.1277 -0.1034  0.1334
    1DIPC   NC320641   5.142  11.463   2.282 -0.1468 -0.0005  0.1328
    1DIPC   PO420642   4.766  11.449   2.471  0.0345  0.0923  0.0704
    1DIPC   GL120643   4.696  11.243   2.958  0.1600  0.2662  0.1180
    1DIPC   GL220644   4.458  11.243   3.227  0.2215 -0.0889 -0.1222
    1DIPC   C1A20645   4.718  11.630   3.480 -0.4078 -0.2784 -0.0192
    1DIPC   D2A20646   4.613  11.735   3.891 -0.3060 -0.1663  0.1800
    1DIPC   D3A20647   4.446  12.016   3.587 -0.0308  0.0735  0.0583
    1DIPC   C4A20648   4.588  12.269   3.266  0.2593 -0.2488 -0.0557
    1DIPC   C1B20649   4.255  11.510   3.423  0.0524 -0.0785  0.3187
    1DIPC   D2B20650   4.035  11.670   3.832 -0.0480 -0.0189 -0.1725
    1DIPC   D3B20651   4.175  11.756   4.208  0.3631  0.0666  0.2128
    1DIPC   C4B20652   4.528  11.936   4.462  0.0883  0.2232  0.2833
    1DIPC   NC320653   2.248  15.322   2.910 -0.0574  0.0549  0.0385
    1DIPC   PO420654   2.689  15.467   3.030 -0.1981 -0.0508  0.0609
    1DIPC   GL120655   2.750  15.480   3.530 -0.3376  0.1864 -0.0343
    1DIPC   GL220656   2.858  15.744   3.626  0.2291 -0.0356  0.0412
    1DIPC   C1A20657   2.784  15.087   3.739 -0.2323  0.1571  0.2913
    1DIPC   D2A20658   2.671  14.749   4.024  0.2615  0.1499  0.1466
    1DIPC   D3A20659   2.919  14.650   4.326 -0.2072 -0.0880 -0.0265
    1DIPC   C4A20660   2.930  14.994   4.637 -0.0158  0.1129 -0.0177
    1DIPC   C1B20661   2.902  15.597   3.997  0.4149  0.0913 -0.1587
    1DIPC   D2B20662   2.769  15.228   4.232  0.1334 -0.1893  0.1227
    1DIPC   D3B20663   2.281  15.178   4.033  0.0199 -0.1239  0.0871
    1DIPC   C4B20664   2.364  15.243   3.618  0.4687  0.0070 -0.4605
    1DIPC   NC320665  21.326  16.905   1.688 -0.0323  0.1347  0.1928
    1DIPC   PO420666  21.206  16.671   2.128  0.3703 -0.0812  0.2566
    1DIPC   GL120667  21.139  16.477   2.489 -0.2026 -0.3303 -0.1246
    1DIPC   GL220668  21.425  16.385   2.591  0.1625  0.0159 -0.1259
    1DIPC   C1A20669  21.011  16.634   2.857 -0.4316  0.2240 -0.0324
    1DIPC   D2A20670  21.158  16.667   3.168  0.0725  0.0760 -0.2265
    1DIPC   D3A20671  21.539  16.646   3.293  0.1474  0.1510 -0.1223
    1DIPC   C4A20672  21.697  16.732   3.788  0.1672 -0.1101  0.0179
    1DIPC   C1B20673  21.325  16.261   3.014 -0.2809  0.1432 -0.1541
    1DIPC   D2B20674  21.443  16.203   3.493  0.1969 -0.1532 -0.2428
    1DIPC   D3B20675  21.117  16.471   3.785  0.1141 -0.5324  0.1380
    1DIPC   C4B20676  21.217  16.862   3.675  0.1013 -0.1503  0.1944
    1DIPC   NC320677  14.832  13.570   2.573 -0.1785 -0.2528  0.3352
    1DIPC   PO420678  14.775  13.181   2.689 -0.0742  0.0789 -0.1121
    1DIPC   GL120679  14.857  12.922   3.072 -0.1552 -0.2674 -0.1498
    1DIPC   GL220680  14.523  12.836   3.270 -0.0360 -0.0150 -0.0950
    1DIPC   C1A20681  14.837  13.139   3.540  0.1551  0.0471 -0.2454
    1DIPC   D2A20682  14.958  13.148   3.967  0.0383 -0.0089 -0.0294
    1DIPC   D3A20683  14.989  13.453   4.221 -0.3855  0.2631  0.1953
    1DIPC   C4A20684  14.858  13.375   4.593  0.2038 -0.3858  0.2656
    1DIPC   C1B20685  14.692  12.676   3.683  0.3100  0.1182  0.0264
    1DIPC   D2B20686  14.659  12.295   3.817  0.0191  0.3870  0.0501
    1DIPC   D3B20687  14.590  12.557   4.167 -0.1113  0.0994 -0.0976
    1DIPC   C4B20688  14.325  12.376   4.469  0.1175  0.0234 -0.3703
    1DIPC   NC320689   3.322  29.303   2.004 -0.2480  0.0042  0.3297
    1DIPC   PO420690   2.882  29.470   2.142 -0.1207  0.0470 -0.0933
    1DIPC   GL120691   3.120  29.302   2.538 -0.1689 -0.3938 -0.2604
    1DIPC   GL220692   3.103  28.959   2.538 -0.2247 -0.0379  0.1017
    1DIPC   C1A20693   3.299  29.458   2.935 -0.2557  0.0161 -0.1354
    1DIPC   D2A20694   3.371  29.228   3.403 -0.1084  0.0969  0.0935
    1DIPC   D3A20695   3.148  28.780   3.508 -0.1945 -0.1277 -0.1800
    1DIPC   C4A20696   3.348  28.590   3.848 -0.0661 -0.1318 -0.3155
    1DIPC   C1B20697   2.788  28.715   2.829  0.0017  0.0646  0.0957
    1DIPC   D2B20698   2.737  28.669   3.335 -0.0122  0.0845  0.0302
    1DIPC   D3B20699   2.807  28.434   3.742 -0.2103 -0.1631  0.1682
    1DIPC   C4B20700   2.598  28.208   3.998 -0.0522  0.2589  0.1278
    1DIPC   NC320701   8.474   0.004   2.770 -0.1606  0.0052 -0.2559
    1DIPC   PO420702   8.396   0.436   3.075 -0.0449  0.0227 -0.0460
    1DIPC   GL120703   8.318   0.278   3.526  0.3249  0.0242  0.3083
    1DIPC   GL220704   7.906   0.123   3.596 -0.1353  0.2378 -0.2593
    1DIPC   C1A20705   8.598   0.167   3.940  0.1009 -0.2805 -0.2411
    1DIPC   D2A20706   8.854  29.835   4.171 -0.2092  0.0328  0.2842
    1DIPC   D3A20707   8.932  29.452   4.288  0.1166 -0.1705 -0.1324
    1DIPC   C4A20708   8.633  29.226   4.594  0.1703 -0.0966  0.1904
    1DIPC   C1B20709   8.190  29.791   3.832 -0.0308 -0.2015 -0.1851
    1DIPC   D2B20710   8.512  29.442   4.047 -0.1013 -0.1804  0.0493
    1DIPC   D3B20711   8.459  29.702   4.412  0.2483  0.4170 -0.2191
    1DIPC   C4B20712   8.885  29.770   4.695 -0.0382  0.3238  0.0829
    1DIPC   NC320713   8.392  18.937   2.517  0.4633  0.0905  0.0456
    1DIPC   PO420714   8.818  19.149   2.608  0.0172  0.0390  0.2327
    1DIPC   GL120715   8.684  18.970   2.917  0.2582  0.1272 -0.0574
    1DIPC   GL220716   8.972  18.943   3.162  0.0286 -0.0895  0.2548
    1DIPC   C1A20717   8.380  18.596   3.058 -0.3637 -0.0379 -0.1454
    1DIPC   D2A20718   8.288  18.193   3.208  0.0721  0.1731 -0.1373
    1DIPC   D3A20719   8.331  17.845   3.037  0.0998  0.2061 -0.2757
    1DIPC   C4A20720   8.464  17.509   3.200  0.0974  0.0129  0.0807
    1DIPC   C1B20721   8.769  18.784   3.575 -0.1326  0.0707  0.2269
    1DIPC   D2B20722   8.874  18.554   4.028 -0.2767 -0.0551  0.0654
    1DIPC   D3B20723   8.571  18.381   4.031 -0.0115 -0.1438  0.1011
    1DIPC   C4B20724   8.430  18.446   3.630 -0.0903  0.0072  0.0318
    1DIPC   NC320725  15.348  18.034   2.193 -0.1037 -0.3082  0.2499
    1DIPC   PO420726  15.003  18.089   2.025 -0.2761 -0.2766  0.1599
    1DIPC   GL120727  14.862  18.271   2.400 -0.2805  0.2310  0.2353
    1DIPC   GL220728  14.674  18.407   2.258 -0.0174 -0.0980 -0.2079
    1DIPC   C1A20729  14.798  18.446   2.767  0.2671  0.0221  0.1043
    1DIPC   D2A20730  14.450  18.496   3.070 -0.4905 -0.1403  0.0922
    1DIPC   D3A20731  14.344  18.353   3.402  0.1808 -0.3470 -0.0773
    1DIPC   C4A20732  14.012  18.054   3.586 -0.1808 -0.2320  0.1469
    1DIPC   C1B20733  14.390  18.561   2.487 -0.0147 -0.1741 -0.3570
    1DIPC   D2B20734  13.961  18.504   2.791  0.1016 -0.2185 -0.3623
    1DIPC   D3B20735  13.982  18.823   3.095  0.1689  0.2197  0.2903
    1DIPC   C4B20736  13.548  19.021   3.071  0.1703 -0.0199  0.0455
    1DIPC   NC320737  11.035  18.804   2.342  0.1089  0.5416  0.3166
    1DIPC   PO420738  11.101  18.873   2.700  0.1067  0.0031 -0.0085
    1DIPC   GL120739  11.239  18.746   3.146 -0.1084 -0.0733 -0.1412
    1DIPC   GL220740  11.147  18.971   3.248  0.1686 -0.0289 -0.0781
    1DIPC   C1A20741  11.280  18.671   3.634 -0.0325 -0.2083  0.2021
    1DIPC   D2A20742  11.287  18.728   4.091  0.0206 -0.1607  0.2476
    1DIPC   D3A20743  11.202  18.447   4.288  0.3236 -0.1474 -0.2986
    1DIPC   C4A20744  10.984  18.094   4.222  0.2537 -0.4080 -0.2398
    1DIPC   C1B20745  10.829  19.129   3.528 -0.1809 -0.0968  0.1064
    1DIPC   D2B20746  10.940  19.118   3.952  0.3869  0.4007 -0.0720
    1DIPC   D3B20747  10.803  19.041   4.282 -0.0310 -0.1856 -0.1244
    1DIPC   C4B20748  10.512  19.206   4.559  0.1977 -0.0616  0.0540
    1DIPC   NC320749  22.157  28.169   2.959  0.0089  0.0144 -0.0199
    1DIPC   PO420750  21.742  28.280   2.913 -0.0899 -0.2544 -0.2110
    1DIPC   GL120751  21.562  28.299   3.444  0.3851 -0.1939 -0.0339
    1DIPC   GL220752  21.278  28.264   3.519 -0.2213  0.0887 -0.2521
    1DIPC   C1A20753  21.661  28.339   3.939  0.3544  0.0451  0.1341
    1DIPC   D2A20754  21.664  28.402   4.347  0.1590 -0.1431 -0.2813
    1DIPC   D3A20755  21.543  28.252   4.812  0.1921 -0.2074  0.3272
    1DIPC   C4A20756  21.977  27.910   4.952  0.1165  0.1044  0.2192
    1DIPC   C1B20757  21.127  28.119   3.899 -0.3039  0.1012 -0.0368
    1DIPC   D2B20758  21.140  28.174   4.346 -0.0156  0.0515  0.0484
    1DIPC   D3B20759  20.784  27.936   4.521  0.2167 -0.1262  0.2718
    1DIPC   C4B20760  20.350  27.952   4.388  0.3587  0.0429 -0.0104
    1DIPC   NC320761   2.813   4.835   3.044 -0.0488  0.2854 -0.2165
    1DIPC   PO420762   2.654   5.254   2.986 -0.0265 -0.1311 -0.1756
    1DIPC   GL120763   2.660   5.413   3.417 -0.1609  0.1026 -0.0916
    1DIPC   GL220764   2.704   5.152   3.472 -0.0543 -0.1741  0.0387
    1DIPC   C1A20765   2.516   5.363   3.869 -0.1654 -0.1840  0.1514
    1DIPC   D2A20766   2.383   5.237   4.250  0.0062 -0.1291 -0.0966
    1DIPC   D3A20767   2.467   5.046   4.556  0.0907  0.1976  0.1710
    1DIPC   C4A20768   2.082   5.032   4.836  0.0317 -0.2093 -0.1391
    1DIPC   C1B20769   3.017   5.287   3.805  0.2196 -0.0175 -0.1791
    1DIPC   D2B20770   3.483   5.371   3.902 -0.3750  0.1992 -0.0503
    1DIPC   D3B20771   3.382   5.459   4.398 -0.2160 -0.0684  0.3076
    1DIPC   C4B20772   3.708   5.687   4.637 -0.1662  0.1832 -0.0332
    1DIPC   NC320773  11.892  29.105   2.751 -0.0854  0.1303 -0.3950
    1DIPC   PO420774  11.919  28.927   3.200  0.2267 -0.0810 -0.0867
    1DIPC   GL120775  11.872  28.565   3.416  0.2934 -0.0852  0.1144
    1DIPC   GL220776  12.043  28.720   3.670 -0.1353 -0.1163  0.0833
    1DIPC   C1A20777  11.933  28.179   3.530 -0.2329 -0.2989 -0.0289
    1DIPC   D2A20778  11.905  28.115   3.947 -0.1249 -0.1868  0.2522
    1DIPC   D3A20779  11.720  28.417   3.946  0.0420  0.1100 -0.2258
    1DIPC   C4A20780  11.562  28.733   4.197  0.0184  0.2011 -0.1005
    1DIPC   C1B20781  12.186  28.490   3.915 -0.2617 -0.4164 -0.3415
    1DIPC   D2B20782  12.357  28.342   4.301 -0.2975  0.1450  0.1083
    1DIPC   D3B20783  12.069  27.929   4.476 -0.1934  0.1450 -0.2004
    1DIPC   C4B20784  11.645  28.107   4.350  0.0172 -0.2470 -0.1448
    1DIPC   NC320785  11.844   0.919   3.235  0.4752 -0.0510  0.0974
    1DIPC   PO420786  11.480   0.744   3.448  0.1287  0.0628 -0.4465
    1DIPC   GL120787  11.299   0.688   3.740  0.0264  0.1914 -0.1068
    1DIPC   GL220788  11.189   0.346   3.809  0.2428 -0.0432 -0.2982
    1DIPC   C1A20789  11.541   0.563   4.166 -0.2598 -0.0215  0.0635
    1DIPC   D2A20790  11.417   0.563   4.564  0.0959  0.1146  0.1106
    1DIPC   D3A20791  11.068   0.361   4.656 -0.2316 -0.0140  0.2086
    1DIPC   C4A20792  11.126   0.259   5.060  0.1384 -0.4168 -0.1584
    1DIPC   C1B20793  11.027   0.593   4.207 -0.3167 -0.0309 -0.0995
    1DIPC   D2B20794  10.950   0.892   4.593  0.2133  0.0911  0.2264
    1DIPC   D3B20795  10.535   0.750   4.440 -0.1936 -0.0228  0.1052
    1DIPC   C4B20796  10.443   0.972   3.988 -0.2679  0.1102  0.5035
    1DIPC   NC320797   0.149  21.859   2.902  0.0522 -0.1490 -0.1056
    1DIPC   PO420798  29.553  21.815   2.899 -0.1801 -0.0195 -0.0122
    1DIPC   GL120799  29.610  22.037   3.248  0.0099  0.0210  0.1683
    1DIPC   GL220800  29.846  22.143   3.430 -0.0844  0.1368  0.1695
    1DIPC   C1A20801  29.430  22.410   3.632 -0.0369  0.2026 -0.0483
    1DIPC   D2A20802  29.380  22.342   4.070 -0.1311 -0.3076 -0.1982
    1DIPC   D3A20803  29.043  22.700   3.910 -0.1467 -0.2580  0.1826
    1DIPC   C4A20804  29.043  22.927   3.484  0.3358  0.1744  0.0675
    1DIPC   C1B20805   0.149  22.361   3.785 -0.1808  0.0165  0.0316
    1DIPC   D2B20806   0.015  22.349   4.286 -0.0301  0.0852  0.3407
    1DIPC   D3B20807  29.584  22.645   4.419  0.0232  0.3996 -0.2630
    1DIPC   C4B20808  29.571  23.063   4.606  0.1841  0.1672  0.1198
    1DIPC   NC320809   4.077  14.240   2.464  0.2331  0.0925 -0.0323
    1DIPC   PO420810   4.406  13.926   2.542 -0.0790  0.1850  0.1537
    1DIPC   GL120811   4.095  13.845   2.877 -0.1090  0.0235 -0.1490
    1DIPC   GL220812   3.750  13.976   2.882 -0.0283  0.2208  0.3430
    1DIPC   C1A20813   3.985  13.669   3.256  0.1013 -0.0203 -0.1572
    1DIPC   D2A20814   3.731  13.490   3.601  0.0535  0.0672 -0.0396
    1DIPC   D3A20815   3.945  13.572   4.051 -0.0520  0.1223 -0.0589
    1DIPC   C4A20816   4.302  13.432   4.142  0.3262 -0.4146  0.0225
    1DIPC   C1B20817   3.407  13.939   3.149  0.0005  0.0874  0.2714
    1DIPC   D2B20818   3.096  14.162   3.273  0.0736 -0.1650  0.0272
    1DIPC   D3B20819   3.361  14.027   3.640  0.0380  0.2884  0.0669
    1DIPC   C4B20820   3.320  13.601   3.860  0.2990 -0.0286 -0.0131
    1DIPC   NC320821  24.118  29.239   2.740 -0.0707  0.1325 -0.0454
    1DIPC   PO420822  24.522  29.323   2.725  0.2101 -0.0557  0.0187
    1DIPC   GL120823  24.515  29.202   3.167  0.0305 -0.1342 -0.1097
    1DIPC   GL220824  24.195  29.199   3.246  0.0264 -0.0759  0.0751
    1DIPC   C1A20825  24.809  28.998   3.493  0.1382  0.1715  0.3210
    1DIPC   D2A20826  25.229  28.938   3.710  0.0409  0.5998 -0.0281
    1DIPC   D3A20827  25.168  29.305   3.985  0.0063 -0.1389 -0.1704
    1DIPC   C4A20828  25.438  29.303   4.397 -0.2779 -0.0081 -0.1338
    1DIPC   C1B20829  24.270  29.174   3.668 -0.1491  0.0275 -0.0732
    1DIPC   D2B20830  24.274  29.193   4.155  0.1490  0.0566  0.0483
    1DIPC   D3B20831  24.194  29.326   4.494  0.3619  0.1446 -0.2968
    1DIPC   C4B20832  24.255  29.769   4.705 -0.2235  0.0428 -0.2917
    1DIPC   NC320833  22.865  20.775   2.760 -0.2453  0.0597  0.2351
    1DIPC   PO420834  22.356  20.672   2.790  0.0656 -0.0781  0.0067
    1DIPC   GL120835  22.453  20.609   3.150  0.0906 -0.1905  0.0351
    1DIPC   GL220836  22.228  20.648   3.343  0.4297 -0.0498  0.0172
    1DIPC   C1A20837  22.820  20.525   3.360  0.1059 -0.1567 -0.2156
    1DIPC   D2A20838  22.998  20.545   3.835  0.0281 -0.0451 -0.0023
    1DIPC   D3A20839  22.970  20.149   3.954 -0.0198  0.0609  0.2066
    1DIPC   C4A20840  23.228  19.779   3.730 -0.1300 -0.0267 -0.0277
    1DIPC   C1B20841  22.442  20.643   3.731 -0.0014  0.0147 -0.1923
    1DIPC   D2B20842  22.738  20.974   3.901  0.2928 -0.3005 -0.0418
    1DIPC   D3B20843  22.935  21.023   3.426 -0.1561 -0.0762 -0.0386
    1DIPC   C4B20844  23.256  20.759   3.479  0.1153  0.2306  0.4392
    1DIPC   NC320845  20.713  24.834   2.305 -0.1313 -0.1535 -0.0192
    1DIPC   PO420846  21.148  24.703   2.405  0.0321 -0.1621  0.0514
    1DIPC   GL120847  21.229  24.657   2.908 -0.2231  0.0552  0.0228
    1DIPC   GL220848  21.030  24.818   3.162  0.0389  0.1117 -0.3943
    1DIPC   C1A20849  21.443  24.596   3.311 -0.2556  0.1021 -0.2978
    1DIPC   D2A20850  21.334  24.607   3.708 -0.1026 -0.1483  0.0915
    1DIPC   D3A20851  21.515  24.838   3.995  0.1477 -0.0881 -0.0639
    1DIPC   C4A20852  21.854  25.157   4.107 -0.2466  0.0760  0.0517
    1DIPC   C1B20853  20.811  24.605   3.526 -0.0887  0.0677 -0.0854
    1DIPC   D2B20854  20.568  24.504   3.881  0.1025  0.2070 -0.0426
    1DIPC   D3B20855  20.679  24.037   3.917 -0.1847 -0.5678  0.0526
    1DIPC   C4B20856  20.646  24.031   4.264 -0.2007  0.0308 -0.2134
    1DIPC   NC320857   1.919  14.695   2.060 -0.2931 -0.2680 -0.1034
    1DIPC   PO420858   2.169  14.692   2.511  0.3186  0.1043  0.0446
    1DIPC   GL120859   2.353  14.605   2.884  0.1017  0.2605 -0.1744
    1DIPC   GL220860   2.101  14.781   3.132  0.1188  0.2546 -0.1113
    1DIPC   C1A20861   2.525  14.318   3.281 -0.0636  0.0300 -0.1356
    1DIPC   D2A20862   2.594  13.911   3.303 -0.0649  0.2228 -0.0766
    1DIPC   D3A20863   2.974  13.785   3.509  0.5132  0.1747 -0.1601
    1DIPC   C4A20864   3.271  13.509   3.305  0.1038  0.0799  0.0038
    1DIPC   C1B20865   1.861  14.898   3.442 -0.0638 -0.0839  0.1176
    1DIPC   D2B20866   1.865  14.932   3.902 -0.1202  0.1085 -0.1767
    1DIPC   D3B20867   1.683  14.671   4.252  0.2204  0.2008  0.4555
    1DIPC   C4B20868   1.713  14.561   4.722  0.2592 -0.1362 -0.0430
    1DIPC   NC320869   4.032   7.053   2.382  0.0291  0.0171  0.0047
    1DIPC   PO420870   3.838   7.014   2.842 -0.0754  0.2357 -0.1754
    1DIPC   GL120871   3.565   7.136   3.237  0.0281 -0.1267  0.0732
    1DIPC   GL220872   3.321   6.834   3.493  0.0873  0.2144  0.0380
    1DIPC   C1A20873   3.748   7.221   3.576 -0.1818 -0.0289 -0.0223
    1DIPC   D2A20874   3.717   7.196   3.975  0.1265  0.0229  0.1032
    1DIPC   D3A20875   4.079   7.433   4.226 -0.0624  0.0529  0.0563
    1DIPC   C4A20876   4.348   7.557   4.682 -0.0429  0.0521 -0.0936
    1DIPC   C1B20877   3.714   6.729   3.738 -0.2236  0.2931 -0.1013
    1DIPC   D2B20878   4.019   6.840   4.093  0.2157 -0.0929 -0.0454
    1DIPC   D3B20879   3.781   6.989   4.472  0.1577  0.1222 -0.2902
    1DIPC   C4B20880   3.938   7.260   4.703 -0.0338 -0.0313  0.0751
    1DIPC   NC320881   8.473  27.206   2.422  0.1416 -0.0152 -0.2069
    1DIPC   PO420882   8.100  27.176   2.254 -0.0030 -0.1304  0.2581
    1DIPC   GL120883   8.112  27.277   2.740  0.0692 -0.0819  0.0609
    1DIPC   GL220884   8.061  27.604   2.878  0.3054 -0.1583 -0.0729
    1DIPC   C1A20885   8.432  27.333   3.081  0.1497 -0.0906  0.0041
    1DIPC   D2A20886   8.848  27.194   3.403  0.0721 -0.1989  0.1260
    1DIPC   D3A20887   9.217  27.249   3.245  0.0164  0.2267 -0.1633
    1DIPC   C4A20888   9.534  27.129   2.911  0.3201 -0.0931 -0.0381
    1DIPC   C1B20889   7.844  27.771   3.274 -0.1162 -0.5026  0.2588
    1DIPC   D2B20890   7.933  27.559   3.676 -0.1095 -0.0824  0.1890
    1DIPC   D3B20891   8.065  27.332   3.412  0.0090  0.1724 -0.0509
    1DIPC   C4B20892   8.446  27.456   3.564 -0.1209  0.1920  0.1162
    1DIPC   NC320893   5.438  12.053   2.671  0.0613 -0.0826  0.1059
    1DIPC   PO420894   5.628  12.347   2.449  0.1403 -0.0814  0.1545
    1DIPC   GL120895   5.907  12.438   2.805 -0.0608 -0.2836 -0.2199
    1DIPC   GL220896   5.871  12.168   3.014  0.2736  0.1491  0.1533
    1DIPC   C1A20897   5.969  12.708   3.116 -0.2523  0.4240  0.1122
    1DIPC   D2A20898   5.940  12.956   3.531  0.2015 -0.1191  0.0652
    1DIPC   D3A20899   5.796  13.176   3.278  0.0735 -0.0748 -0.1946
    1DIPC   C4A20900   5.579  13.419   3.488 -0.2098 -0.1092  0.0273
    1DIPC   C1B20901   5.545  12.492   3.131 -0.0148  0.0864  0.2579
    1DIPC   D2B20902   5.306  12.947   3.136 -0.1175  0.0487 -0.2503
    1DIPC   D3B20903   5.397  12.927   3.508  0.1827  0.0817  0.4256
    1DIPC   C4B20904   5.209  13.124   3.887 -0.2291 -0.1471 -0.2836
    1DIPC   NC320905   0.802  17.705   2.793  0.0887  0.0428 -0.0838
    1DIPC   PO420906   1.094  17.455   2.635  0.0991 -0.0032  0.0971
    1DIPC   GL120907   1.258  17.748   3.008 -0.0074  0.1113  0.2971
    1DIPC   GL220908   1.355  18.057   2.998 -0.0151 -0.2288  0.0956
    1DIPC   C1A20909   1.438  17.743   3.476  0.1521 -0.1643 -0.1730
    1DIPC   D2A20910   1.276  17.910   3.833 -0.1557  0.2868 -0.5021
    1DIPC   D3A20911   1.280  17.496   3.937  0.0094 -0.1901 -0.0332
    1DIPC   C4A20912   1.329  17.346   4.398  0.0873 -0.0627 -0.2166
    1DIPC   C1B20913   1.358  18.201   3.406  0.3483  0.2802 -0.1253
    1DIPC   D2B20914   1.268  18.555   3.636  0.4804  0.2716 -0.4151
    1DIPC   D3B20915   1.506  18.339   3.963 -0.0452 -0.0498  0.2652
    1DIPC   C4B20916   1.569  18.467   4.440  0.2430  0.2996 -0.0128
    1DIPC   NC320917  18.541  20.391   1.942  0.0462 -0.1766  0.2008
    1DIPC   PO420918  18.119  20.339   1.907 -0.1024  0.1471 -0.1810
    1DIPC   GL120919  17.730  20.142   2.076  0.4044  0.1061 -0.4052
    1DIPC   GL220920  17.743  20.441   2.256  0.1004  0.0268 -0.0123
    1DIPC   C1A20921  17.710  19.891   2.546  0.0978  0.2265 -0.0678
    1DIPC   D2A20922  17.626  19.543   2.741 -0.0041  0.1767 -0.1772
    1DIPC   D3A20923  17.483  19.242   2.569 -0.3482  0.1198  0.0032
    1DIPC   C4A20924  17.427  18.909   2.769  0.1018 -0.0773  0.0453
    1DIPC   C1B20925  17.965  20.505   2.640 -0.1247 -0.2620 -0.2104
    1DIPC   D2B20926  18.046  20.406   3.006 -0.1791  0.2254  0.2460
    1DIPC   D3B20927  18.002  20.006   2.981 -0.0065  0.0876 -0.0284
    1DIPC   C4B20928  17.657  19.864   3.314 -0.0926 -0.1031  0.2085
    1DIPC   NC320929  23.304  21.060   2.554  0.2606  0.0933 -0.1242
    1DIPC   PO420930  23.125  21.188   2.956 -0.1206  0.1318  0.0020
    1DIPC   GL120931  23.400  20.919   3.023  0.0255 -0.1907  0.0849
    1DIPC   GL220932  23.676  21.018   2.975  0.0497 -0.4773  0.1737
    1DIPC   C1A20933  23.357  20.406   3.153 -0.1224  0.1362  0.2912
    1DIPC   D2A20934  23.252  20.175   3.464  0.4603  0.2409  0.1155
    1DIPC   D3A20935  23.659  19.983   3.644  0.1545  0.1802  0.0175
    1DIPC   C4A20936  23.862  20.198   3.981 -0.1141  0.2415  0.0564
    1DIPC   C1B20937  23.825  21.474   3.265 -0.1139  0.0107  0.3663
    1DIPC   D2B20938  23.676  21.658   3.577 -0.2087 -0.2173 -0.1733
    1DIPC   D3B20939  23.345  21.949   3.664  0.2248 -0.0444  0.0740
    1DIPC   C4B20940  22.886  21.848   3.752  0.2109 -0.0336 -0.0665
    1DIPC   NC320941  29.071  11.747   2.732  0.1264 -0.0637 -0.1864
    1DIPC   PO420942  29.360  12.132   2.833  0.0955 -0.0412  0.3034
    1DIPC   GL120943  29.527  12.238   3.257  0.0683  0.1052 -0.1454
    1DIPC   GL220944  29.275  12.026   3.509 -0.1919  0.2645  0.0216
    1DIPC   C1A20945  29.710  12.290   3.700 -0.3694 -0.0744  0.0591
    1DIPC   D2A20946  29.790  12.332   4.112 -0.4476  0.1265 -0.1836
    1DIPC   D3A20947  29.443  12.597   4.116  0.0543  0.1220  0.3173
    1DIPC   C4A20948  29.104  12.791   4.338 -0.1163 -0.1013  0.1382
    1DIPC   C1B20949  29.183  12.192   3.859 -0.1475  0.0008  0.1056
    1DIPC   D2B20950  29.367  12.107   4.251 -0.0598  0.1942 -0.3459
    1DIPC   D3B20951  29.056  11.907   4.475  0.1592  0.0148  0.2260
    1DIPC   C4B20952  29.097  11.560   4.832  0.1438  0.0859  0.3222
    1DIPC   NC320953   3.048  11.448   2.562 -0.3140 -0.1078 -0.1483
    1DIPC   PO420954   2.782  11.784   2.720  0.0083 -0.1652 -0.2494
    1DIPC   GL120955   2.753  11.789   3.154 -0.1256 -0.0473 -0.1594
    1DIPC   GL220956   2.592  11.530   3.403  0.2618 -0.0163  0.1764
    1DIPC   C1A20957   2.627  12.216   3.385 -0.0757 -0.4752  0.0154
    1DIPC   D2A20958   2.872  12.546   3.705 -0.1406  0.4513  0.0440
    1DIPC   D3A20959   2.846  12.245   4.108 -0.0170 -0.0058  0.0131
    1DIPC   C4A20960   2.799  11.781   4.145  0.1478  0.0600  0.1292
    1DIPC   C1B20961   3.006  11.355   3.581 -0.1023 -0.1815  0.3507
    1DIPC   D2B20962   3.158  11.415   3.975 -0.0138  0.0115 -0.0915
    1DIPC   D3B20963   2.867  11.298   4.311  0.0641  0.2573  0.1552
    1DIPC   C4B20964   2.847  10.841   4.444  0.1042  0.1968 -0.0175
    1DIPC   NC320965   9.260  15.044   2.403 -0.0587  0.0018  0.1231
    1DIPC   PO420966   9.192  15.443   2.623  0.0044 -0.2857 -0.0162
    1DIPC   GL120967   9.180  15.482   3.061 -0.2053  0.0575 -0.4267
    1DIPC   GL220968   9.448  15.579   3.095  0.0028  0.1361 -0.0576
    1DIPC   C1A20969   9.142  15.512   3.475 -0.2162  0.1762  0.2692
    1DIPC   D2A20970   9.157  15.286   3.861 -0.0672 -0.2010 -0.0275
    1DIPC   D3A20971   8.905  15.706   3.943 -0.1681 -0.0706 -0.1585
    1DIPC   C4A20972   8.989  16.054   3.738 -0.1556 -0.1935  0.0947
    1DIPC   C1B20973   9.656  15.438   3.466 -0.1996  0.0653 -0.1382
    1DIPC   D2B20974   9.957  15.270   3.832  0.1878  0.1042 -0.1691
    1DIPC   D3B20975   9.689  15.348   4.133 -0.0825 -0.0649 -0.3122
    1DIPC   C4B20976   9.393  14.992   4.247  0.0745  0.0142  0.1701
    1DIPC   NC320977   8.654  16.618   2.531  0.3903  0.0425  0.3180
    1DIPC   PO420978   8.837  17.086   2.667 -0.0682  0.0688 -0.1976
    1DIPC   GL120979   8.493  17.018   2.993  0.0658 -0.2093 -0.0615
    1DIPC   GL220980   8.306  16.829   2.857  0.4120 -0.1634  0.2391
    1DIPC   C1A20981   8.555  17.112   3.445 -0.1114 -0.0425 -0.1538
    1DIPC   D2A20982   8.453  17.002   3.841  0.0492 -0.0001  0.2549
    1DIPC   D3A20983   8.079  17.121   3.985  0.0689 -0.0792 -0.2059
    1DIPC   C4A20984   7.818  16.845   4.168  0.1133  0.0816  0.0908
    1DIPC   C1B20985   7.967  17.012   3.121 -0.0459  0.1256 -0.0284
    1DIPC   D2B20986   7.749  17.425   3.264 -0.0510  0.3510 -0.1424
    1DIPC   D3B20987   8.139  17.344   3.542  0.4927  0.1804 -0.2714
    1DIPC   C4B20988   8.464  17.539   3.820 -0.0323  0.0756 -0.1602
    1DIPC   NC320989  28.240  12.586   2.944 -0.1784  0.0479  0.0457
    1DIPC   PO420990  28.671  12.838   2.934  0.1628 -0.0992  0.2419
    1DIPC   GL120991  28.643  12.953   3.360  0.1596  0.0307 -0.2767
    1DIPC   GL220992  28.611  13.303   3.396  0.0396 -0.0558 -0.4703
    1DIPC   C1A20993  28.451  12.947   3.812  0.0744 -0.1506  0.1434
    1DIPC   D2A20994  28.198  12.894   4.150  0.5288 -0.3938  0.1023
    1DIPC   D3A20995  28.560  12.792   4.263  0.0775  0.2329 -0.1793
    1DIPC   C4A20996  28.720  13.066   4.459  0.0094 -0.4545  0.0102
    1DIPC   C1B20997  28.990  13.446   3.640 -0.1843 -0.1801  0.1017
    1DIPC   D2B20998  29.330  13.597   3.363  0.0624 -0.4674 -0.0173
    1DIPC   D3B20999  29.774  13.580   3.289 -0.0387 -0.2136  0.0521
    1DIPC   C4B21000   0.078  13.336   3.649  0.2923 -0.0885 -0.3001
    1DIPC   NC321001  29.694   9.098   2.787 -0.2557 -0.1029  0.3236
    1DIPC   PO421002  29.826   8.860   3.139 -0.1346  0.1177 -0.1351
    1DIPC   GL121003  29.734   8.862   3.546 -0.0328 -0.4392  0.0410
    1DIPC   GL221004   0.042   9.137   3.538  0.1534  0.2733  0.0634
    1DIPC   C1A21005  29.582   8.999   3.950  0.2321 -0.1554  0.1498
    1DIPC   D2A21006  29.245   9.175   4.198 -0.0819  0.1131  0.4397
    1DIPC   D3A21007  29.596   9.451   4.454  0.1319 -0.1020  0.1461
    1DIPC   C4A21008  29.695   9.760   4.273 -0.2507 -0.1699 -0.2839
    1DIPC   C1B21009   0.234   8.965   3.909  0.0825 -0.1928  0.1336
    1DIPC   D2B21010   0.085   9.068   4.243 -0.0053 -0.1594 -0.2208
    1DIPC   D3B21011   0.194   9.345   4.571 -0.2961  0.1850 -0.2094
    1DIPC   C4B21012  29.818   9.347   4.993 -0.1320  0.0575  0.0196
    1DIPC   NC321013  23.092  26.038   2.639  0.0606 -0.0097  0.1529
    1DIPC   PO421014  23.488  26.073   2.933  0.0985  0.2058  0.2973
    1DIPC   GL121015  23.654  26.081   3.336  0.2463  0.2987 -0.0504
    1DIPC   GL221016  23.715  25.758   3.374 -0.0449  0.0023  0.1618
    1DIPC   C1A21017  23.382  26.108   3.857  0.1943 -0.2332  0.2090
    1DIPC   D2A21018  23.481  25.993   4.205 -0.3373 -0.1626  0.0141
    1DIPC   D3A21019  23.211  25.833   4.614  0.0467  0.0327  0.2411
    1DIPC   C4A21020  22.863  25.659   4.571  0.0057  0.0701  0.1143
    1DIPC   C1B21021  23.826  25.923   3.850  0.0014 -0.1284 -0.0550
    1DIPC   D2B21022  24.033  25.887   4.241  0.0178 -0.1048 -0.0994
    1DIPC   D3B21023  23.725  25.527   4.247 -0.3869 -0.3653  0.0873
    1DIPC   C4B21024  23.366  25.347   4.515  0.1568 -0.0532  0.0646
    1DIPC   NC321025   0.197  21.314   2.324  0.1490  0.1296  0.0248
    1DIPC   PO421026   0.389  21.077   2.587 -0.0968  0.1189 -0.0632
    1DIPC   GL121027   0.419  21.195   2.982  0.1723 -0.2654  0.0124
    1DIPC   GL221028   0.690  21.069   3.027 -0.1185 -0.1754  0.0175
    1DIPC   C1A21029   0.394  20.994   3.459  0.0201  0.2836  0.0983
    1DIPC   D2A21030   0.194  20.781   3.843 -0.2984 -0.2324  0.1524
    1DIPC   D3A21031   0.229  20.439   4.180 -0.3103 -0.0275  0.1738
    1DIPC   C4A21032  29.790  20.371   4.454 -0.0572  0.1721 -0.0266
    1DIPC   C1B21033   0.900  21.084   3.445  0.1760 -0.2236  0.2625
    1DIPC   D2B21034   1.142  21.243   3.845  0.0009  0.0265 -0.0096
    1DIPC   D3B21035   1.112  21.030   4.260  0.1912 -0.0086 -0.0688
    1DIPC   C4B21036   0.728  20.922   4.508  0.1851  0.0516 -0.0450
    1DIPC   NC321037   2.215   5.358   2.715 -0.0232  0.0547 -0.0956
    1DIPC   PO421038   1.874   5.081   2.822 -0.2495  0.0591 -0.1233
    1DIPC   GL121039   2.003   5.227   3.222  0.5186 -0.0006 -0.1182
    1DIPC   GL221040   2.148   5.100   3.466  0.1411 -0.4833  0.3213
    1DIPC   C1A21041   1.887   5.467   3.549 -0.1599  0.2110 -0.1055
    1DIPC   D2A21042   1.573   5.615   3.832  0.0515  0.0868 -0.1726
    1DIPC   D3A21043   1.195   5.763   4.219  0.0841 -0.0744 -0.0914
    1DIPC   C4A21044   1.270   5.801   4.623  0.4008  0.2233 -0.0051
    1DIPC   C1B21045   1.969   5.102   3.910  0.0853  0.2193 -0.1207
    1DIPC   D2B21046   1.918   5.109   4.395 -0.2318  0.0797 -0.3146
    1DIPC   D3B21047   1.599   5.427   4.464  0.0152 -0.1037  0.3211
    1DIPC   C4B21048   1.802   5.821   4.743  0.2100  0.2002 -0.3131
    1DIPC   NC321049   7.738   3.979   3.162  0.2232  0.0352  0.0461
    1DIPC   PO421050   7.626   3.618   3.196  0.2411  0.0495  0.2057
    1DIPC   GL121051   7.488   3.635   3.684  0.3612 -0.0247  0.0774
    1DIPC   GL221052   7.305   3.491   3.748 -0.0272 -0.2645  0.1997
    1DIPC   C1A21053   7.570   3.717   4.052  0.1183 -0.0018 -0.0657
    1DIPC   D2A21054   7.404   3.990   4.365 -0.1002  0.0696 -0.1788
    1DIPC   D3A21055   7.513   3.579   4.582  0.0456 -0.0048  0.0273
    1DIPC   C4A21056   7.674   3.547   5.037 -0.1963 -0.2448  0.0381
    1DIPC   C1B21057   7.005   3.339   3.945  0.0223 -0.2949  0.1462
    1DIPC   D2B21058   6.755   3.134   4.332 -0.1427  0.0134  0.2060
    1DIPC   D3B21059   7.009   3.166   4.640 -0.2192 -0.2112 -0.1172
    1DIPC   C4B21060   6.792   3.437   4.873  0.1202  0.0253 -0.0181
    1DIPC   NC321061  23.030   2.010   3.667 -0.0720  0.0093 -0.2612
    1DIPC   PO421062  23.503   2.186   3.620 -0.1877 -0.0599 -0.0768
    1DIPC   GL121063  23.512   2.393   3.905  0.2593 -0.2022  0.1469
    1DIPC   GL221064  23.295   2.191   4.186  0.0985  0.2171  0.2024
    1DIPC   C1A21065  23.541   2.582   4.222 -0.5003  0.0009  0.2431
    1DIPC   D2A21066  23.370   2.396   4.685 -0.1011  0.2077 -0.1724
    1DIPC   D3A21067  23.417   2.643   5.095 -0.0725  0.2137 -0.2174
    1DIPC   C4A21068  23.284   2.959   5.451 -0.2649  0.1862 -0.0083
    1DIPC   C1B21069  23.127   1.852   4.491  0.1564 -0.0921  0.0848
    1DIPC   D2B21070  22.681   1.840   4.666 -0.2286  0.0534 -0.0137
    1DIPC   D3B21071  22.948   1.711   4.965  0.1857  0.0439  0.1224
    1DIPC   C4B21072  23.180   1.959   5.277  0.0095  0.1351  0.1224
    1DIPC   NC321073   3.458  19.265   2.693 -0.2457 -0.2223  0.0182
    1DIPC   PO421074   3.569  18.916   3.010  0.0889 -0.0792 -0.1178
    1DIPC   GL121075   3.549  19.097   3.510 -0.1777 -0.4347  0.0501
    1DIPC   GL221076   3.459  19.355   3.765  0.1383  0.1791  0.2693
    1DIPC   C1A21077   3.715  18.870   3.885 -0.0048 -0.1241  0.1619
    1DIPC   D2A21078   3.755  18.871   4.319  0.2894 -0.2711  0.2771
    1DIPC   D3A21079   3.493  19.135   4.309 -0.1851  0.1676  0.3237
    1DIPC   C4A21080   3.350  19.163   4.632  0.0836 -0.0777  0.1398
    1DIPC   C1B21081   3.454  19.709   3.913  0.0936 -0.2012  0.1616
    1DIPC   D2B21082   3.315  19.991   4.136  0.2796  0.1066 -0.2681
    1DIPC   D3B21083   3.011  19.853   4.211 -0.1230 -0.0442 -0.0033
    1DIPC   C4B21084   3.112  19.432   4.220  0.3181 -0.3163  0.1913
    1DIPC   NC321085  21.524  24.905   2.644  0.0909 -0.0324 -0.0781
    1DIPC   PO421086  21.491  25.349   2.629  0.2471  0.2120  0.0357
    1DIPC   GL121087  21.539  25.236   3.167 -0.1371 -0.0130  0.2568
    1DIPC   GL221088  21.863  25.272   3.233 -0.0927 -0.2345 -0.3206
    1DIPC   C1A21089  21.542  25.124   3.607  0.0594 -0.1132  0.4031
    1DIPC   D2A21090  21.440  25.398   4.016  0.2531  0.1778 -0.0676
    1DIPC   D3A21091  20.995  25.302   4.192  0.2112  0.3280  0.1690
    1DIPC   C4A21092  20.854  25.578   4.597 -0.0276 -0.1088 -0.0323
    1DIPC   C1B21093  21.992  25.407   3.641 -0.0397  0.3206 -0.1240
    1DIPC   D2B21094  22.263  25.479   3.966  0.2777  0.1395 -0.1638
    1DIPC   D3B21095  21.863  25.728   4.138  0.0125 -0.0919 -0.1931
    1DIPC   C4B21096  22.021  25.956   4.443  0.0547 -0.0701 -0.1767
    1DIPC   NC321097   2.419  16.312   2.547 -0.0828  0.3840  0.1128
    1DIPC   PO421098   2.663  16.343   2.926  0.0105  0.1559  0.1672
    1DIPC   GL121099   2.436  16.271   3.327  0.1054 -0.3040  0.0878
    1DIPC   GL221100   2.704  16.173   3.479 -0.1720 -0.0435 -0.1114
    1DIPC   C1A21101   2.221  16.385   3.710  0.0734 -0.3548  0.0888
    1DIPC   D2A21102   2.244  16.194   4.126  0.2259  0.3040  0.4068
    1DIPC   D3A21103   2.347  16.366   4.503  0.2852  0.0016 -0.2576
    1DIPC   C4A21104   2.085  16.289   4.888  0.0523  0.0111  0.2800
    1DIPC   C1B21105   2.679  16.146   3.875  0.0085  0.0057 -0.0089
    1DIPC   D2B21106   2.725  16.117   4.290 -0.1356  0.0353 -0.1199
    1DIPC   D3B21107   2.859  15.756   4.501  0.1647 -0.0759 -0.1012
    1DIPC   C4B21108   3.117  15.368   4.472  0.2368 -0.1218  0.2054
    1DIPC   NC321109   1.117  12.246   2.287 -0.1354 -0.2433 -0.2846
    1DIPC   PO421110   1.348  11.967   2.628 -0.2314  0.0958 -0.0766
    1DIPC   GL121111   1.105  11.867   3.017  0.0510 -0.0650  0.0832
    1DIPC   GL221112   1.234  11.903   3.334 -0.0200 -0.1362 -0.2109
    1DIPC   C1A21113   0.948  11.528   3.342  0.2005 -0.1197 -0.1447
    1DIPC   D2A21114   0.764  11.117   3.456 -0.0642 -0.2260  0.0605
    1DIPC   D3A21115   1.072  11.114   3.068 -0.2203 -0.1602  0.3292
    1DIPC   C4A21116   1.495  10.772   3.097  0.3796 -0.0445 -0.3957
    1DIPC   C1B21117   1.253  11.803   3.816 -0.1290  0.2322 -0.2224
    1DIPC   D2B21118   1.555  11.913   4.110  0.1859  0.4418 -0.1284
    1DIPC   D3B21119   1.176  12.048   4.502  0.0910 -0.1670  0.1860
    1DIPC   C4B21120   0.745  12.243   4.584 -0.4516 -0.1051  0.2598
    1DIPC   NC321121  28.982   4.285   2.638  0.1931  0.2660 -0.0581
    1DIPC   PO421122  28.549   4.567   2.755 -0.1783 -0.0044  0.3789
    1DIPC   GL121123  28.843   4.628   3.126 -0.3112 -0.0337 -0.1106
    1DIPC   GL221124  28.655   4.878   3.145 -0.0530  0.1067 -0.0486
    1DIPC   C1A21125  29.086   4.758   3.503  0.2068  0.0953  0.2485
    1DIPC   D2A21126  29.166   5.080   3.740 -0.1228 -0.0151  0.0682
    1DIPC   D3A21127  29.546   5.184   3.982  0.1511  0.1273  0.2711
    1DIPC   C4A21128  29.654   5.412   4.401  0.0025 -0.1648 -0.0077
    1DIPC   C1B21129  28.621   4.869   3.610  0.0688  0.1942 -0.1615
    1DIPC   D2B21130  28.409   4.996   3.975 -0.0198  0.3470  0.0389
    1DIPC   D3B21131  28.704   5.284   3.861 -0.1967  0.1789 -0.0570
    1DIPC   C4B21132  29.027   5.419   4.200 -0.1622 -0.0291 -0.0416
    1DIPC   NC321133   8.102   2.298   3.356  0.0613 -0.0064 -0.0375
    1DIPC   PO421134   8.387   1.900   3.363 -0.1192  0.0911  0.1939
    1DIPC   GL121135   8.044   1.607   3.554 -0.0694 -0.1093 -0.2036
    1DIPC   GL221136   7.993   1.214   3.515  0.4034 -0.0441  0.1079
    1DIPC   C1A21137   7.888   1.488   3.982  0.2506 -0.0957  0.1059
    1DIPC   D2A21138   7.755   1.299   4.272  0.0104  0.0422 -0.1377
    1DIPC   D3A21139   7.996   1.401   4.654  0.3765  0.3117  0.0641
    1DIPC   C4A21140   8.119   1.134   4.883  0.0584  0.2862  0.0668
    1DIPC   C1B21141   8.186   1.046   3.902  0.1330 -0.3071 -0.3151
    1DIPC   D2B21142   8.655   1.043   4.126  0.2631  0.0208 -0.2251
    1DIPC   D3B21143   8.475   0.923   4.539 -0.0915 -0.1703 -0.0530
    1DIPC   C4B21144   8.099   0.894   4.403 -0.2484  0.0477 -0.1529
    1DIPC   NC321145  16.991  16.053   2.490  0.0907  0.0625  0.0018
    1DIPC   PO421146  17.307  15.754   2.633  0.0037 -0.0494  0.1069
    1DIPC   GL121147  16.992  15.652   2.889 -0.1685 -0.3682 -0.0250
    1DIPC   GL221148  16.781  15.454   2.843 -0.1553 -0.0973  0.4220
    1DIPC   C1A21149  16.839  15.660   3.342  0.0128 -0.2033  0.0407
    1DIPC   D2A21150  16.924  15.522   3.732  0.2937  0.0211  0.1089
    1DIPC   D3A21151  17.220  15.864   3.905  0.1269  0.1137  0.0409
    1DIPC   C4A21152  17.052  16.156   4.135 -0.0714  0.2928 -0.2493
    1DIPC   C1B21153  16.440  15.401   3.174 -0.1615  0.0802  0.0755
    1DIPC   D2B21154  16.452  15.463   3.603  0.2522 -0.0878 -0.0428
    1DIPC   D3B21155  15.963  15.344   3.481  0.0874 -0.2239 -0.1059
    1DIPC   C4B21156  15.922  14.838   3.196  0.0461 -0.0760 -0.2561
    1DIPC   NC321157   0.806  12.870   3.054  0.1979  0.1605 -0.1270
    1DIPC   PO421158   0.893  13.273   2.825 -0.3009  0.2082  0.3336
    1DIPC   GL121159   0.986  13.493   3.232 -0.1086  0.0233 -0.2390
    1DIPC   GL221160   1.244  13.378   3.229 -0.1809  0.0577  0.1347
    1DIPC   C1A21161   0.697  13.599   3.630  0.3188  0.0922 -0.0310
    1DIPC   D2A21162   0.502  13.816   4.001 -0.2699 -0.0185 -0.0196
    1DIPC   D3A21163   0.834  13.524   4.180  0.2289 -0.1340 -0.2824
    1DIPC   C4A21164   1.228  13.726   4.245 -0.1086 -0.0674 -0.1082
    1DIPC   C1B21165   1.373  13.152   3.524  0.1720 -0.1164 -0.1161
    1DIPC   D2B21166   1.169  13.114   3.865 -0.3055  0.2948 -0.1308
    1DIPC   D3B21167   1.454  13.234   4.087  0.2910  0.0560 -0.2168
    1DIPC   C4B21168   1.310  13.110   4.480  0.1097  0.0455 -0.4606
    1DIPC   NC321169  27.415  13.697   3.212  0.1501  0.2256 -0.2765
    1DIPC   PO421170  27.558  14.072   3.169  0.2148 -0.0533 -0.0189
    1DIPC   GL121171  27.853  13.958   3.583  0.0786  0.1371 -0.2360
    1DIPC   GL221172  27.586  14.095   3.763  0.2439  0.3325  0.1046
    1DIPC   C1A21173  28.063  13.787   3.885 -0.0819  0.1275 -0.0157
    1DIPC   D2A21174  28.121  13.434   4.166  0.1328 -0.0956 -0.5139
    1DIPC   D3A21175  28.087  13.620   4.647  0.1303  0.0020  0.5167
    1DIPC   C4A21176  28.003  13.409   4.968 -0.0844 -0.0706  0.0382
    1DIPC   C1B21177  27.648  14.089   4.165  0.0529  0.0911  0.1205
    1DIPC   D2B21178  27.962  13.975   4.351  0.0250 -0.1213 -0.1151
    1DIPC   D3B21179  28.386  14.034   4.138  0.0927 -0.1115  0.1298
    1DIPC   C4B21180  28.779  14.004   4.358 -0.0686 -0.0808  0.2890
    1DIPC   NC321181   2.026  19.741   2.383  0.2063  0.1361  0.0639
    1DIPC   PO421182   1.869  20.000   2.598 -0.0079 -0.0365 -0.1629
    1DIPC   GL121183   1.618  19.779   2.938  0.0411 -0.0058  0.2221
    1DIPC   GL221184   1.781  19.442   3.021 -0.0503  0.0675  0.1456
    1DIPC   C1A21185   1.588  19.825   3.370 -0.0618 -0.0749 -0.0375
    1DIPC   D2A21186   1.591  20.077   3.633  0.1024  0.0494 -0.1581
    1DIPC   D3A21187   1.841  19.707   3.888 -0.2303 -0.3354 -0.0941
    1DIPC   C4A21188   2.175  19.798   4.066 -0.0201 -0.1203 -0.1757
    1DIPC   C1B21189   2.055  19.785   3.187 -0.1343  0.1582  0.0178
    1DIPC   D2B21190   2.490  20.027   3.280 -0.1167  0.0767  0.0299
    1DIPC   D3B21191   2.640  19.656   3.407  0.0284  0.0653  0.0609
    1DIPC   C4B21192   2.228  19.521   3.675 -0.2993 -0.2172  0.0295
    1DIPC   NC321193  21.188   2.994   3.859 -0.0875 -0.1997  0.1113
    1DIPC   PO421194  21.657   3.071   3.929  0.1800 -0.1373  0.2170
    1DIPC   GL121195  21.472   2.972   4.287 -0.1639  0.2552  0.4823
    1DIPC   GL221196  21.264   3.184   4.336 -0.0937 -0.0233  0.2504
    1DIPC   C1A21197  21.410   3.064   4.773 -0.2550 -0.2860  0.3271
    1DIPC   D2A21198  21.608   3.086   5.211  0.3469 -0.0182 -0.0006
    1DIPC   D3A21199  21.128   3.027   5.297 -0.3227  0.1924  0.2047
    1DIPC   C4A21200  20.888   2.992   5.784 -0.0218  0.1383 -0.1263
    1DIPC   C1B21201  21.034   3.388   4.626 -0.2770 -0.0525  0.2271
    1DIPC   D2B21202  20.824   3.271   4.982  0.1721  0.1537  0.0384
    1DIPC   D3B21203  20.916   3.580   5.286 -0.0483 -0.1588 -0.1262
    1DIPC   C4B21204  21.004   3.497   5.752 -0.1340 -0.0488  0.1992
    1DIPC   NC321205  22.702  21.567   2.051 -0.3712 -0.4531  0.0043
    1DIPC   PO421206  22.812  21.257   2.462 -0.1506 -0.2484 -0.2164
    1DIPC   GL121207  22.665  21.366   2.962 -0.0003 -0.0297  0.0885
    1DIPC   GL221208  22.580  21.096   3.015 -0.2343  0.2256 -0.2289
    1DIPC   C1A21209  22.707  21.545   3.305  0.0374  0.1132  0.2854
    1DIPC   D2A21210  22.629  21.402   3.694 -0.1719  0.1897  0.0707
    1DIPC   D3A21211  22.522  21.356   4.191 -0.2256  0.0601 -0.0327
    1DIPC   C4A21212  22.866  21.167   4.404 -0.2087  0.2085  0.0343
    1DIPC   C1B21213  22.405  21.101   3.419  0.2689  0.1206 -0.2346
    1DIPC   D2B21214  22.006  21.039   3.578  0.0636 -0.0759 -0.2714
    1DIPC   D3B21215  22.216  21.080   3.853 -0.2803 -0.0235  0.0571
    1DIPC   C4B21216  22.305  20.867   4.251  0.1047  0.1055  0.2098
    1DIPC   NC321217   0.113   0.433   2.291  0.2974  0.0994 -0.1681
    1DIPC   PO421218  29.663   0.747   2.161  0.0830  0.1731  0.2396
    1DIPC   GL121219  29.685   0.695   2.579  0.2519 -0.0736 -0.0867
    1DIPC   GL221220   0.112   0.599   2.820  0.0482 -0.1046 -0.3532
    1DIPC   C1A21221  29.685   0.974   2.946 -0.1310  0.0101  0.2609
    1DIPC   D2A21222  29.844   1.202   3.322  0.0347  0.0846  0.0712
    1DIPC   D3A21223  29.729   1.103   3.733 -0.3523  0.2800 -0.0250
    1DIPC   C4A21224   0.157   0.823   3.859 -0.1648  0.0703  0.2108
    1DIPC   C1B21225  29.695   0.567   3.279 -0.3276 -0.0400 -0.0299
    1DIPC   D2B21226  29.568   0.613   3.725  0.0257 -0.0550 -0.1079
    1DIPC   D3B21227  29.491   0.161   3.586  0.0904 -0.0690  0.3544
    1DIPC   C4B21228  29.366   0.009   3.237  0.1026 -0.1148  0.1185
    1DIPC   NC321229  13.481  20.466   1.434 -0.2207 -0.2456 -0.2919
    1DIPC   PO421230  13.395  20.812   1.745  0.0599  0.0297  0.2219
    1DIPC   GL121231  13.513  20.929   2.120 -0.1109 -0.2819 -0.3556
    1DIPC   GL221232  13.738  21.137   2.026 -0.1866 -0.0932 -0.0288
    1DIPC   C1A21233  13.406  21.196   2.393 -0.0738 -0.1767 -0.1492
    1DIPC   D2A21234  13.660  21.578   2.426 -0.0149 -0.1231  0.1360
    1DIPC   D3A21235  13.293  21.800   2.380 -0.5861  0.1047 -0.1454
    1DIPC   C4A21236  13.095  22.011   2.058 -0.2500  0.1023 -0.0261
    1DIPC   C1B21237  14.077  21.207   2.352 -0.1748 -0.2482  0.2742
    1DIPC   D2B21238  14.047  21.434   2.660  0.1251  0.0044 -0.0957
    1DIPC   D3B21239  14.026  21.001   3.042  0.1460  0.0908  0.1233
    1DIPC   C4B21240  14.316  20.775   3.282  0.1093 -0.2198 -0.0256
    1DIPC   NC321241   9.632  10.899   3.006  0.0087  0.1312 -0.1743
    1DIPC   PO421242   9.697  11.267   3.154  0.1380 -0.0323 -0.2253
    1DIPC   GL121243   9.749  11.486   3.554  0.1380  0.1865 -0.1100
    1DIPC   GL221244   9.430  11.583   3.550  0.0221 -0.2511  0.0048
    1DIPC   C1A21245  10.119  11.398   3.790  0.1308  0.1121 -0.2573
    1DIPC   D2A21246  10.480  11.536   3.920  0.1451  0.2510  0.0045
    1DIPC   D3A21247  10.428  11.539   4.343  0.3211 -0.1248  0.0825
    1DIPC   C4A21248  10.798  11.285   4.543  0.1991 -0.1690  0.1285
    1DIPC   C1B21249   9.260  11.775   3.989  0.0715 -0.1659  0.0595
    1DIPC   D2B21250   9.437  11.801   4.410 -0.2061  0.1311 -0.2008
    1DIPC   D3B21251   9.815  12.029   4.382 -0.0078  0.0594 -0.5253
    1DIPC   C4B21252  10.180  11.886   4.626 -0.1740 -0.1111 -0.3383
    1DIPC   NC321253   2.914  21.507   2.749  0.4781 -0.0001  0.0367
    1DIPC   PO421254   2.553  21.768   2.594  0.2706 -0.2605 -0.4166
    1DIPC   GL121255   2.457  21.791   2.971  0.0265 -0.0088  0.2676
    1DIPC   GL221256   2.305  22.053   3.046 -0.2431  0.2129  0.0346
    1DIPC   C1A21257   2.446  21.764   3.485 -0.2107 -0.0820  0.2807
    1DIPC   D2A21258   2.372  21.842   3.939  0.1353  0.0904 -0.0699
    1DIPC   D3A21259   2.217  21.555   4.186  0.0324  0.0264  0.0903
    1DIPC   C4A21260   1.676  21.380   4.137 -0.0662 -0.0291  0.0757
    1DIPC   C1B21261   2.011  21.606   3.206  0.1619  0.0321  0.0810
    1DIPC   D2B21262   2.056  21.190   3.222 -0.0008 -0.1125 -0.1136
    1DIPC   D3B21263   1.996  20.892   3.573 -0.0843 -0.1316 -0.0293
    1DIPC   C4B21264   1.981  20.768   3.971 -0.1746  0.0757  0.0929
    1DIPC   NC321265  28.461  18.428   2.626 -0.1044 -0.1472 -0.1030
    1DIPC   PO421266  28.252  18.765   2.963  0.0909  0.1261  0.0584
    1DIPC   GL121267  28.421  18.941   3.304  0.0003 -0.1634 -0.1931
    1DIPC   GL221268  28.592  19.194   3.082  0.2848  0.1625 -0.0907
    1DIPC   C1A21269  28.116  19.025   3.617  0.0093  0.1682  0.1446
    1DIPC   D2A21270  27.776  19.001   3.927 -0.0900 -0.3841 -0.0474
    1DIPC   D3A21271  27.759  19.240   4.366 -0.0408  0.1165 -0.0829
    1DIPC   C4A21272  27.740  19.087   4.794  0.3553 -0.1409  0.2864
    1DIPC   C1B21273  28.939  19.003   3.373  0.1650  0.2419 -0.3917
    1DIPC   D2B21274  28.942  18.768   3.713 -0.1824 -0.1829 -0.2892
    1DIPC   D3B21275  28.548  18.464   3.588 -0.1708  0.0656 -0.0527
    1DIPC   C4B21276  28.178  18.516   3.906 -0.0160 -0.0112 -0.2896
    1DIPC   NC321277  10.510   6.568   2.961  0.2676  0.1742  0.3752
    1DIPC   PO421278  10.477   6.521   3.414 -0.0221 -0.1604 -0.1260
    1DIPC   GL121279  10.479   6.414   3.853  0.3826  0.1267  0.0312
    1DIPC   GL221280  10.596   6.760   4.010  0.1057  0.0477 -0.0283
    1DIPC   C1A21281  10.634   6.239   4.216  0.2501  0.1044  0.1581
    1DIPC   D2A21282  10.858   6.036   4.510 -0.0527  0.0204  0.2677
    1DIPC   D3A21283  11.301   6.448   4.560 -0.0082 -0.2940  0.3515
    1DIPC   C4A21284  11.489   6.668   4.910  0.3087  0.0820  0.1628
    1DIPC   C1B21285  10.323   7.034   4.268 -0.1714  0.1562 -0.1270
    1DIPC   D2B21286  10.305   7.381   4.561 -0.1039 -0.1248  0.1426
    1DIPC   D3B21287  10.072   7.130   4.838 -0.2960 -0.1415 -0.4255
    1DIPC   C4B21288  10.291   6.759   5.059  0.0016 -0.2374  0.1718
    1DIPC   NC321289  25.037   6.820   2.944  0.1657  0.1619 -0.0273
    1DIPC   PO421290  24.728   6.728   3.333  0.0815 -0.0660 -0.0105
    1DIPC   GL121291  24.850   6.704   3.687  0.1360 -0.1231 -0.2538
    1DIPC   GL221292  24.799   6.730   3.999  0.1316  0.1550 -0.0708
    1DIPC   C1A21293  25.256   6.451   3.898 -0.2132 -0.1671  0.0930
    1DIPC   D2A21294  25.543   6.580   4.287 -0.2463  0.3136  0.1591
    1DIPC   D3A21295  25.564   6.916   4.188  0.1323  0.2588 -0.0961
    1DIPC   C4A21296  25.090   7.097   4.091  0.2605  0.2715 -0.2695
    1DIPC   C1B21297  25.010   6.613   4.306 -0.0477 -0.0694 -0.2134
    1DIPC   D2B21298  25.200   6.193   4.429  0.1248  0.0995 -0.3293
    1DIPC   D3B21299  25.024   6.477   4.789  0.0949 -0.0423 -0.1542
    1DIPC   C4B21300  25.167   6.915   4.833  0.0709 -0.0620 -0.2883
    1DIPC   NC321301   8.982  27.903   2.584  0.2319  0.0206 -0.0488
    1DIPC   PO421302   9.221  27.669   2.973 -0.0405 -0.1160 -0.0990
    1DIPC   GL121303   9.009  27.776   3.307 -0.2157 -0.3217  0.1218
    1DIPC   GL221304   8.803  27.989   3.083 -0.1376 -0.0319 -0.1338
    1DIPC   C1A21305   8.747  27.791   3.711 -0.0382 -0.1857  0.1945
    1DIPC   D2A21306   8.688  27.604   4.200 -0.0085  0.1086  0.0571
    1DIPC   D3A21307   8.996  27.780   4.521 -0.0123  0.3127  0.0248
    1DIPC   C4A21308   9.224  28.206   4.467 -0.2212 -0.1768 -0.0161
    1DIPC   C1B21309   8.388  27.829   3.279 -0.0525  0.2567  0.1837
    1DIPC   D2B21310   8.185  27.975   3.630 -0.1229  0.0227 -0.3215
    1DIPC   D3B21311   8.185  27.759   4.016  0.2160 -0.2889 -0.1950
    1DIPC   C4B21312   7.801  27.595   4.182 -0.1391  0.0070  0.2204
    1DIPC   NC321313  10.661  29.083   2.652 -0.0535  0.1356 -0.0686
    1DIPC   PO421314  10.589  28.875   3.107 -0.0084  0.0172  0.1254
    1DIPC   GL121315  10.369  28.856   3.472  0.0224  0.0742 -0.4147
    1DIPC   GL221316  10.223  28.541   3.572 -0.4954 -0.2032  0.1305
    1DIPC   C1A21317  10.660  28.660   3.794  0.0201  0.0109  0.0369
    1DIPC   D2A21318  11.165  28.562   3.988  0.1518 -0.4098 -0.3085
    1DIPC   D3A21319  11.297  28.063   3.903 -0.0492  0.1977 -0.0358
    1DIPC   C4A21320  11.475  27.725   4.093 -0.1329 -0.4349  0.0300
    1DIPC   C1B21321  10.326  28.208   3.864  0.1694 -0.1277  0.0852
    1DIPC   D2B21322  10.130  27.831   4.060 -0.2315 -0.1066  0.0638
    1DIPC   D3B21323   9.776  28.080   4.385 -0.0397 -0.1663  0.0649
    1DIPC   C4B21324   9.755  28.367   4.665  0.0909  0.0258  0.0242
    1DIPC   NC321325  29.679  12.580   2.933  0.0418  0.0103  0.2679
    1DIPC   PO421326   0.045  12.250   2.936 -0.0075 -0.1008  0.0622
    1DIPC   GL121327   0.216  12.241   3.312  0.2193 -0.0334 -0.0769
    1DIPC   GL221328   0.561  12.419   3.424  0.1184  0.3075 -0.3450
    1DIPC   C1A21329   0.329  11.923   3.792 -0.0918 -0.0968  0.1611
    1DIPC   D2A21330   0.327  11.626   4.181 -0.0838  0.0200 -0.1252
    1DIPC   D3A21331   0.741  11.336   4.211 -0.0278 -0.0679  0.0206
    1DIPC   C4A21332   1.053  11.039   4.321  0.1924 -0.2086  0.0018
    1DIPC   C1B21333   0.462  12.408   3.863  0.0028  0.0808 -0.1891
    1DIPC   D2B21334   0.437  12.516   4.307 -0.1589  0.1201 -0.0457
    1DIPC   D3B21335   0.249  12.216   4.464  0.2255 -0.0918  0.2295
    1DIPC   C4B21336  29.834  12.102   4.723  0.2455 -0.1366 -0.0897
    1DIPC   NC321337  17.321   1.671   3.997  0.0818 -0.0828 -0.0224
    1DIPC   PO421338  17.287   1.242   4.040  0.1416 -0.1239  0.0726
    1DIPC   GL121339  17.313   1.542   4.458  0.1319  0.4465  0.4449
    1DIPC   GL221340  17.546   1.823   4.426  0.2314  0.1429  0.2214
    1DIPC   C1A21341  17.203   1.652   4.872 -0.1532  0.0946 -0.2841
    1DIPC   D2A21342  17.177   1.263   5.221  0.2480  0.1135 -0.0597
    1DIPC   D3A21343  17.162   1.704   5.363  0.0003 -0.2086 -0.0829
    1DIPC   C4A21344  16.818   1.946   5.398  0.0539 -0.3640 -0.2104
    1DIPC   C1B21345  17.680   1.605   4.797 -0.2458 -0.1787 -0.0339
    1DIPC   D2B21346  18.058   1.667   5.049  0.2083  0.2963  0.1182
    1DIPC   D3B21347  18.033   1.671   5.567 -0.1971 -0.0759  0.0950
    1DIPC   C4B21348  17.956   1.419   5.904 -0.0911 -0.2484  0.3657
    1DIPC   NC321349  27.017  18.672   2.155  0.1326 -0.2104 -0.0171
    1DIPC   PO421350  26.536  18.516   2.446 -0.1141  0.0639 -0.0240
    1DIPC   GL121351  26.571  18.445   2.858  0.0344  0.1168  0.1798
    1DIPC   GL221352  26.879  18.474   2.945 -0.0237  0.0136 -0.0281
    1DIPC   C1A21353  26.437  18.093   3.259 -0.0327  0.2272  0.1854
    1DIPC   D2A21354  26.032  17.794   3.361 -0.0244  0.2140  0.0308
    1DIPC   D3A21355  26.412  17.642   3.477  0.0441  0.0162 -0.0031
    1DIPC   C4A21356  26.456  17.325   3.768 -0.0870 -0.3350  0.1866
    1DIPC   C1B21357  26.549  18.584   3.304  0.1295  0.0325  0.4026
    1DIPC   D2B21358  26.357  18.512   3.670  0.2088  0.0049 -0.1873
    1DIPC   D3B21359  26.294  18.059   3.734 -0.0130  0.1614 -0.0351
    1DIPC   C4B21360  26.569  17.769   4.002  0.1882 -0.1849  0.2583
    1DIPC   NC321361  19.411  24.510   1.914  0.0089 -0.0379 -0.0388
    1DIPC   PO421362  18.981  24.705   1.763  0.0017 -0.1476 -0.1562
    1DIPC   GL121363  18.984  24.619   2.251 -0.0188 -0.1322  0.0671
    1DIPC   GL221364  18.665  24.589   2.237 -0.0294 -0.2635  0.1841
    1DIPC   C1A21365  18.983  24.796   2.680  0.0693 -0.0607  0.0188
    1DIPC   D2A21366  19.223  24.880   3.001 -0.2493  0.1385 -0.3240
    1DIPC   D3A21367  19.641  24.926   2.713  0.1016  0.3036  0.1029
    1DIPC   C4A21368  19.968  24.589   2.822  0.0524 -0.0443  0.1548
    1DIPC   C1B21369  18.637  24.470   2.567 -0.0532 -0.1521  0.2636
    1DIPC   D2B21370  18.354  24.303   3.011 -0.1679  0.0193  0.3221
    1DIPC   D3B21371  18.273  24.384   3.455  0.2000 -0.0289 -0.0362
    1DIPC   C4B21372  18.239  24.876   3.738 -0.1940  0.0058  0.1306
    1DIPC   NC321373  29.209  26.593   2.359 -0.0650 -0.2446 -0.4885
    1DIPC   PO421374  29.568  26.266   2.458 -0.3488 -0.2549 -0.0092
    1DIPC   GL121375  29.754  26.459   2.669 -0.2576 -0.0368 -0.0122
    1DIPC   GL221376   0.168  26.669   2.476  0.0661 -0.0642  0.0751
    1DIPC   C1A21377   0.165  26.395   3.037  0.0011 -0.0423 -0.3390
    1DIPC   D2A21378   0.443  26.386   3.305 -0.0039 -0.0452 -0.2651
    1DIPC   D3A21379   0.191  26.105   3.563  0.1074  0.0465 -0.0275
    1DIPC   C4A21380  29.700  26.174   3.840  0.3850  0.0010  0.0924
    1DIPC   C1B21381   0.294  26.936   2.727  0.0347  0.0726 -0.1385
    1DIPC   D2B21382   0.735  27.065   2.725 -0.0129 -0.0723 -0.0446
    1DIPC   D3B21383   0.502  27.426   2.686 -0.1541  0.1957 -0.1112
    1DIPC   C4B21384   0.111  27.446   2.596  0.0122  0.2881 -0.2684
    1DIPC   NC321385  29.344  25.778   2.607  0.1839  0.0113  0.2370
    1DIPC   PO421386  28.873  25.737   2.643 -0.1503  0.0822 -0.2136
    1DIPC   GL121387  29.131  25.896   3.049  0.0715 -0.4321 -0.1052
    1DIPC   GL221388  29.578  25.926   3.003  0.0316 -0.1523  0.0669
    1DIPC   C1A21389  29.135  26.085   3.431  0.0615 -0.0943 -0.1505
    1DIPC   D2A21390  28.949  26.061   3.826 -0.4248  0.0276  0.0839
    1DIPC   D3A21391  28.998  26.319   4.099  0.1776 -0.0565 -0.1113
    1DIPC   C4A21392  29.444  26.201   4.242  0.3871  0.0405  0.2495
    1DIPC   C1B21393  29.581  26.225   3.360  0.3179  0.5612  0.1071
    1DIPC   D2B21394  29.519  26.643   3.161  0.0607 -0.3033 -0.1400
    1DIPC   D3B21395  29.486  26.899   3.363 -0.1275 -0.0787 -0.0051
    1DIPC   C4B21396  29.184  27.101   3.212  0.2308 -0.0227 -0.0400
    1DIPC   NC321397   2.722   8.852   2.560  0.1795 -0.2343 -0.1909
    1DIPC   PO421398   2.993   9.108   2.866 -0.1894  0.0215 -0.1638
    1DIPC   GL121399   2.826   9.184   3.298 -0.1343  0.2608 -0.1577
    1DIPC   GL221400   3.188   9.028   3.468 -0.1494 -0.0745 -0.0614
    1DIPC   C1A21401   2.568   9.207   3.621 -0.1980 -0.0606  0.2391
    1DIPC   D2A21402   2.425   9.273   4.097 -0.1674 -0.1453 -0.2154
    1DIPC   D3A21403   2.735   9.640   4.089  0.0778 -0.3714  0.2235
    1DIPC   C4A21404   2.783   9.843   3.749 -0.2571  0.1353  0.4092
    1DIPC   C1B21405   2.846   8.716   3.597  0.0855 -0.1386 -0.1834
    1DIPC   D2B21406   2.845   8.559   4.015 -0.1583 -0.0258 -0.1256
    1DIPC   D3B21407   3.259   8.397   4.090  0.0536 -0.2565  0.2137
    1DIPC   C4B21408   3.346   8.162   4.121  0.0259  0.3712 -0.0192
    1DIPC   NC321409   7.968  11.848   2.410  0.1133  0.0221  0.3860
    1DIPC   PO421410   7.652  12.159   2.605  0.0356  0.1272 -0.0103
    1DIPC   GL121411   7.364  12.338   2.854 -0.1569  0.1019 -0.0142
    1DIPC   GL221412   7.186  12.205   3.117  0.0733 -0.0917  0.1127
    1DIPC   C1A21413   7.193  12.682   3.199  0.2965 -0.1325  0.2331
    1DIPC   D2A21414   7.110  12.977   3.531 -0.1012  0.0112  0.0294
    1DIPC   D3A21415   6.735  12.738   3.694 -0.1348  0.2973  0.2614
    1DIPC   C4A21416   6.437  13.092   3.788  0.3834 -0.3980  0.0722
    1DIPC   C1B21417   6.975  12.148   3.571  0.1060 -0.3731  0.0312
    1DIPC   D2B21418   7.200  12.220   4.040  0.5880  0.1819 -0.1649
    1DIPC   D3B21419   6.795  12.209   4.120  0.1205  0.2141  0.1910
    1DIPC   C4B21420   6.533  12.579   4.152  0.1161  0.1846  0.3009
    1DIPC   NC321421   3.943  22.580   1.986 -0.0835 -0.2114 -0.0399
    1DIPC   PO421422   3.806  22.434   2.331 -0.0460  0.0251  0.0069
    1DIPC   GL121423   3.883  22.508   2.798 -0.0192  0.0999 -0.3003
    1DIPC   GL221424   4.148  22.682   2.824  0.2412  0.2315 -0.0197
    1DIPC   C1A21425   4.014  22.519   3.297  0.1335 -0.3457  0.3654
    1DIPC   D2A21426   3.981  22.399   3.785 -0.1663  0.3750 -0.0669
    1DIPC   D3A21427   4.350  22.504   3.694  0.0514 -0.0337 -0.3215
    1DIPC   C4A21428   4.586  22.175   3.603  0.2269  0.0687 -0.3494
    1DIPC   C1B21429   4.294  22.927   3.075 -0.0719  0.1865 -0.0011
    1DIPC   D2B21430   4.490  22.933   3.428  0.0479  0.0205 -0.0315
    1DIPC   D3B21431   4.730  23.258   3.495 -0.2711  0.1181 -0.1903
    1DIPC   C4B21432   4.651  23.549   3.830  0.0560  0.0716 -0.0211
    1DIPC   NC321433  29.385  16.776   2.402  0.1095 -0.1023 -0.0489
    1DIPC   PO421434  29.233  16.496   2.659 -0.1665  0.5366 -0.0620
    1DIPC   GL121435  29.371  16.528   3.065 -0.4458 -0.2289 -0.0979
    1DIPC   GL221436  29.383  16.323   3.325  0.2997  0.1044  0.1572
    1DIPC   C1A21437  29.695  16.695   3.307 -0.0767 -0.0421 -0.1784
    1DIPC   D2A21438   0.310  16.765   3.481  0.2729  0.1744 -0.0633
    1DIPC   D3A21439   0.252  16.404   3.635 -0.1501  0.0039  0.0772
    1DIPC   C4A21440  29.713  16.054   3.656  0.2009 -0.0354 -0.1400
    1DIPC   C1B21441  29.381  16.535   3.620  0.0466  0.1607  0.0915
    1DIPC   D2B21442  29.285  16.888   3.689  0.1253  0.2340  0.1834
    1DIPC   D3B21443  29.465  16.684   4.083 -0.0355 -0.3452  0.1729
    1DIPC   C4B21444  29.441  16.181   4.036 -0.0395 -0.0460 -0.1682
    1DIPC   NC321445   0.921  28.484   2.121 -0.0424  0.2064  0.0295
    1DIPC   PO421446   0.816  28.261   1.687 -0.0898  0.1584  0.0501
    1DIPC   GL121447   1.194  28.059   2.019 -0.0367  0.1311  0.0766
    1DIPC   GL221448   1.329  28.160   2.269 -0.1646 -0.1809  0.0454
    1DIPC   C1A21449   0.988  27.906   2.535 -0.1469 -0.1963  0.1201
    1DIPC   D2A21450   0.660  27.804   2.943  0.3109 -0.2496  0.0170
    1DIPC   D3A21451   0.444  27.943   3.292 -0.0505  0.1617  0.1142
    1DIPC   C4A21452  29.830  28.086   3.295  0.0561 -0.0309 -0.1634
    1DIPC   C1B21453   1.509  27.723   2.489 -0.3611 -0.0476 -0.1867
    1DIPC   D2B21454   1.423  27.707   3.014 -0.1661 -0.0953  0.1140
    1DIPC   D3B21455   1.092  27.902   3.202 -0.1791  0.1549 -0.0608
    1DIPC   C4B21456   1.017  27.671   3.548 -0.1202 -0.1217 -0.0289
    1DIPC   NC321457  20.918  27.842   2.576 -0.0816  0.0515 -0.1404
    1DIPC   PO421458  21.049  27.524   2.611 -0.1669  0.0167 -0.2196
    1DIPC   GL121459  21.286  27.466   2.988  0.0022 -0.1530  0.0366
    1DIPC   GL221460  21.200  27.258   3.226 -0.2788 -0.0883  0.0025
    1DIPC   C1A21461  21.648  27.426   3.374  0.0462 -0.4874  0.2073
    1DIPC   D2A21462  21.556  27.317   3.804 -0.0356 -0.1699 -0.0232
    1DIPC   D3A21463  21.234  26.923   3.744  0.0055  0.2639  0.0960
    1DIPC   C4A21464  21.005  26.945   4.080  0.2429  0.2256 -0.1491
    1DIPC   C1B21465  21.107  27.450   3.585  0.0706  0.4275 -0.1058
    1DIPC   D2B21466  21.167  27.514   3.935  0.0568  0.0940 -0.1294
    1DIPC   D3B21467  21.305  27.349   4.366  0.0977 -0.3956  0.0413
    1DIPC   C4B21468  21.107  27.605   4.624  0.3674 -0.2284 -0.1671
    1DIPC   NC321469   0.809  11.302   2.245 -0.1261 -0.1077  0.0119
    1DIPC   PO421470   0.443  11.097   2.291 -0.1332  0.1435  0.2168
    1DIPC   GL121471   0.696  11.072   2.669  0.0782 -0.2203 -0.3043
    1DIPC   GL221472   0.632  10.849   2.975 -0.3013 -0.0904  0.1377
    1DIPC   C1A21473   0.578  11.372   2.990 -0.0291 -0.2674  0.0866
    1DIPC   D2A21474   0.161  11.356   3.138 -0.2524  0.2585 -0.1196
    1DIPC   D3A21475   0.343  11.464   3.479 -0.0496 -0.5700  0.1644
    1DIPC   C4A21476   0.136  11.416   3.815 -0.0463 -0.0323  0.1618
    1DIPC   C1B21477   0.478  10.704   3.358 -0.2961  0.0324 -0.0772
    1DIPC   D2B21478   0.309  10.931   3.743  0.3215 -0.0968 -0.1187
    1DIPC   D3B21479   0.245  10.991   4.068  0.3697 -0.0843  0.0550
    1DIPC   C4B21480  29.747  11.353   4.276  0.0397  0.3295 -0.2427
    1DIPC   NC321481   6.932  19.838   2.188  0.2310  0.2807 -0.1349
    1DIPC   PO421482   7.252  19.565   2.041  0.1800  0.0155 -0.0226
    1DIPC   GL121483   7.244  19.483   2.427 -0.5339  0.0424  0.0992
    1DIPC   GL221484   6.983  19.455   2.715  0.1441  0.2359  0.1017
    1DIPC   C1A21485   7.509  19.573   2.754  0.0242 -0.0627 -0.0163
    1DIPC   D2A21486   7.461  20.025   2.919 -0.0127  0.0542 -0.0703
    1DIPC   D3A21487   7.238  19.999   3.259 -0.2540 -0.1675 -0.1446
    1DIPC   C4A21488   6.935  20.198   3.308  0.1420  0.1932 -0.0503
    1DIPC   C1B21489   7.179  19.440   3.166 -0.0864  0.0223  0.2606
    1DIPC   D2B21490   7.434  19.615   3.518  0.1477 -0.1758  0.0770
    1DIPC   D3B21491   7.778  19.626   3.154 -0.0158  0.1477 -0.0283
    1DIPC   C4B21492   8.101  19.319   3.088 -0.1846  0.2579  0.2554
    1DIPC   NC321493  11.957  16.247   2.676 -0.0843  0.2639 -0.0720
    1DIPC   PO421494  11.525  16.218   2.780  0.0850 -0.0079  0.0691
    1DIPC   GL121495  11.533  16.090   3.136 -0.3017 -0.1747  0.1971
    1DIPC   GL221496  11.866  16.130   3.209 -0.2254  0.0873 -0.1927
    1DIPC   C1A21497  11.253  16.067   3.539 -0.2641  0.2029 -0.1039
    1DIPC   D2A21498  10.993  16.175   3.794  0.2010 -0.1014 -0.0221
    1DIPC   D3A21499  10.917  15.978   4.186 -0.4015  0.2792  0.1833
    1DIPC   C4A21500  11.211  15.742   4.343 -0.1338  0.1049 -0.1399
    1DIPC   C1B21501  11.629  16.348   3.596 -0.0961  0.2019  0.3973
    1DIPC   D2B21502  11.432  16.266   4.050  0.1296 -0.1454  0.0038
    1DIPC   D3B21503  11.162  16.497   4.195  0.2186 -0.2796  0.0034
    1DIPC   C4B21504  10.695  16.598   4.108 -0.1168  0.1638 -0.1753
    1DIPC   NC321505   9.670  24.194   1.719  0.0956  0.2950 -0.0438
    1DIPC   PO421506  10.001  24.042   2.021  0.1083 -0.1903 -0.4264
    1DIPC   GL121507  10.063  24.212   2.421 -0.1562 -0.2020 -0.0144
    1DIPC   GL221508  10.402  24.163   2.441  0.0471  0.2098 -0.1956
    1DIPC   C1A21509   9.678  24.366   2.735  0.4491  0.0291 -0.0668
    1DIPC   D2A21510   9.460  24.530   3.108  0.2144  0.3050  0.0918
    1DIPC   D3A21511   8.956  24.466   3.310 -0.3689 -0.2297 -0.0691
    1DIPC   C4A21512   8.841  24.548   3.729 -0.1920 -0.0506  0.2529
    1DIPC   C1B21513  10.640  24.155   2.824  0.0428  0.0907  0.1193
    1DIPC   D2B21514  10.595  23.953   3.165 -0.3170 -0.0480  0.3395
    1DIPC   D3B21515  10.464  24.246   3.414 -0.2583  0.0788 -0.1548
    1DIPC   C4B21516  10.623  24.486   3.708  0.4223  0.2797  0.1394
    1DIPC   NC321517  14.504  10.900   2.656  0.1534  0.0456 -0.1567
    1DIPC   PO421518  14.877  10.733   2.493  0.0065  0.0946 -0.2104
    1DIPC   GL121519  14.936  10.750   2.907 -0.0687 -0.0224  0.2085
    1DIPC   GL221520  14.915  10.461   2.954  0.0358 -0.1700  0.2535
    1DIPC   C1A21521  14.914  11.035   3.322 -0.2247  0.1555 -0.0698
    1DIPC   D2A21522  15.012  11.328   3.707  0.0769  0.1470 -0.1119
    1DIPC   D3A21523  14.613  11.206   3.713  0.1356 -0.3226 -0.1114
    1DIPC   C4A21524  14.393  10.783   3.626 -0.1774 -0.1647  0.1525
    1DIPC   C1B21525  14.970  10.472   3.466  0.1650  0.0890  0.0267
    1DIPC   D2B21526  14.852  10.728   3.725 -0.0228 -0.0292  0.1835
    1DIPC   D3B21527  14.822  10.415   4.117  0.0128  0.2885  0.2017
    1DIPC   C4B21528  15.076  10.639   4.421  0.0439  0.1057  0.1866
    1DIPC   NC321529  21.327  23.560   3.003  0.0385 -0.2629 -0.1279
    1DIPC   PO421530  21.685  23.801   2.900 -0.0849  0.2483 -0.0011
    1DIPC   GL121531  21.490  24.106   3.129 -0.0036  0.1320 -0.2143
    1DIPC   GL221532  21.242  24.166   3.006  0.0535  0.0083  0.1537
    1DIPC   C1A21533  21.162  24.162   3.489  0.0543  0.3059 -0.2671
    1DIPC   D2A21534  21.101  23.841   3.755  0.1133  0.1526 -0.1251
    1DIPC   D3A21535  21.220  23.486   3.550 -0.1499 -0.0144 -0.0257
    1DIPC   C4A21536  21.228  23.103   3.871  0.0127 -0.1873  0.0112
    1DIPC   C1B21537  20.795  24.048   3.060  0.0983  0.1863  0.1050
    1DIPC   D2B21538  20.331  24.071   2.850 -0.2649 -0.0574 -0.5092
    1DIPC   D3B21539  20.142  23.923   3.200 -0.1638 -0.4382 -0.1352
    1DIPC   C4B21540  20.483  23.911   3.473  0.3229 -0.0923  0.0538
    1DIPC   NC321541   3.466  20.882   2.605 -0.0471 -0.1290  0.0228
    1DIPC   PO421542   3.105  21.036   2.809 -0.1279  0.1772  0.1772
    1DIPC   GL121543   3.421  20.917   3.191 -0.0299  0.2124  0.0433
    1DIPC   GL221544   3.650  21.183   3.287  0.3786  0.0813  0.0959
    1DIPC   C1A21545   3.488  20.919   3.651  0.0038  0.1487  0.1429
    1DIPC   D2A21546   3.434  20.742   4.093 -0.0882 -0.0437 -0.2985
    1DIPC   D3A21547   3.634  20.336   4.278 -0.1362 -0.0243 -0.0871
    1DIPC   C4A21548   3.873  20.282   4.590 -0.1761 -0.2226 -0.2156
    1DIPC   C1B21549   3.899  21.230   3.720 -0.3562 -0.0757  0.2767
    1DIPC   D2B21550   3.851  21.173   4.154  0.2738  0.0262 -0.0891
    1DIPC   D3B21551   3.965  21.488   4.453 -0.2047  0.2759  0.2798
    1DIPC   C4B21552   3.674  21.682   4.661 -0.3178 -0.0084  0.1149
    1DIPC   NC321553  15.888  20.519   1.561  0.1775 -0.1928  0.2116
    1DIPC   PO421554  15.534  20.803   1.467 -0.2931 -0.0226  0.2618
    1DIPC   GL121555  15.280  20.955   1.940  0.0220  0.0922  0.0680
    1DIPC   GL221556  14.947  20.904   2.055  0.3060  0.3658 -0.0810
    1DIPC   C1A21557  15.518  21.115   2.248 -0.0736 -0.2092 -0.0210
    1DIPC   D2A21558  15.782  21.473   2.331 -0.1577  0.1028 -0.0220
    1DIPC   D3A21559  15.748  21.688   2.662 -0.0034 -0.2758 -0.0286
    1DIPC   C4A21560  15.717  21.481   3.001 -0.0045  0.0138  0.1457
    1DIPC   C1B21561  14.958  20.830   2.559  0.0837  0.0353  0.1465
    1DIPC   D2B21562  14.664  20.842   2.919  0.0113 -0.4250 -0.1882
    1DIPC   D3B21563  15.135  20.778   3.075  0.1467 -0.1107 -0.1981
    1DIPC   C4B21564  15.124  20.690   3.449  0.2226  0.4130 -0.0133
    1DIPC   NC321565  20.838  17.044   1.948  0.3938  0.3594  0.2225
    1DIPC   PO421566  20.463  17.125   2.139  0.1238 -0.0608 -0.1321
    1DIPC   GL121567  20.458  17.355   2.534 -0.0672  0.0943 -0.2381
    1DIPC   GL221568  20.154  17.622   2.634 -0.3358  0.0509 -0.1906
    1DIPC   C1A21569  20.275  17.166   2.918  0.2152  0.3505  0.0592
    1DIPC   D2A21570  20.022  17.132   3.285  0.3022  0.1706 -0.1910
    1DIPC   D3A21571  19.585  17.090   3.678  0.0930 -0.3984  0.1033
    1DIPC   C4A21572  19.328  17.502   3.753 -0.0747  0.0947 -0.1519
    1DIPC   C1B21573  19.989  17.623   3.007 -0.0282 -0.1010 -0.0513
    1DIPC   D2B21574  20.071  17.961   3.316  0.1940  0.1429 -0.2605
    1DIPC   D3B21575  20.206  17.887   3.705 -0.3755  0.1361  0.0130
    1DIPC   C4B21576  20.454  18.196   3.877  0.1383  0.0024 -0.0858
    1DIPC   NC321577  14.823  16.670   2.043  0.1349  0.0406  0.1773
    1DIPC   PO421578  15.108  17.040   2.147  0.0312 -0.1174 -0.1195
    1DIPC   GL121579  15.085  17.452   2.481 -0.1042 -0.0826 -0.3132
    1DIPC   GL221580  15.125  17.678   2.400 -0.1863  0.2192 -0.1831
    1DIPC   C1A21581  14.755  17.376   2.719  0.2196 -0.2022 -0.2271
    1DIPC   D2A21582  14.775  17.071   3.011  0.1854 -0.2003 -0.2619
    1DIPC   D3A21583  14.714  17.418   3.413 -0.3609 -0.0108  0.1698
    1DIPC   C4A21584  15.026  17.226   3.772 -0.0588  0.1571  0.2914
    1DIPC   C1B21585  14.875  17.864   2.667  0.1967 -0.1076 -0.2413
    1DIPC   D2B21586  14.440  18.085   2.648  0.0868  0.1362 -0.4598
    1DIPC   D3B21587  14.092  18.035   2.999 -0.3550 -0.1196  0.1095
    1DIPC   C4B21588  13.926  17.726   3.163 -0.2232 -0.2747 -0.1642
    1DIPC   NC321589   1.468   2.376   2.904 -0.1682  0.1080  0.0945
    1DIPC   PO421590   1.953   2.317   2.916  0.0172  0.0649  0.0612
    1DIPC   GL121591   1.997   2.095   3.321 -0.1878 -0.2146 -0.0550
    1DIPC   GL221592   2.301   2.078   3.575 -0.0666  0.0525  0.2065
    1DIPC   C1A21593   1.880   1.846   3.663 -0.0594 -0.4513 -0.3328
    1DIPC   D2A21594   1.879   1.302   3.867 -0.2786  0.0680 -0.0641
    1DIPC   D3A21595   1.904   0.837   3.855 -0.0880 -0.0111  0.1366
    1DIPC   C4A21596   1.603   0.700   4.114  0.0705 -0.0370 -0.0404
    1DIPC   C1B21597   2.102   2.210   4.038  0.1832 -0.1868 -0.1878
    1DIPC   D2B21598   1.818   2.369   4.354 -0.0053 -0.0080 -0.0461
    1DIPC   D3B21599   1.853   2.646   4.765 -0.0233  0.0312 -0.1371
    1DIPC   C4B21600   1.645   2.929   4.746  0.1335  0.3186  0.1478
    1DIPC   NC321601  28.697  26.211   2.532 -0.1460 -0.1403 -0.2200
    1DIPC   PO421602  28.595  26.720   2.496  0.2244  0.0903  0.6097
    1DIPC   GL121603  28.620  26.843   2.995  0.1103 -0.0443  0.0734
    1DIPC   GL221604  28.705  27.116   3.160 -0.1500  0.0968  0.1899
    1DIPC   C1A21605  28.674  26.703   3.446 -0.6095 -0.0576  0.1331
    1DIPC   D2A21606  29.094  26.642   3.615 -0.1651 -0.1322  0.0565
    1DIPC   D3A21607  29.513  26.580   3.751 -0.0155  0.4136 -0.1905
    1DIPC   C4A21608   0.013  26.617   3.473 -0.2116  0.0043  0.0797
    1DIPC   C1B21609  28.792  27.161   3.560 -0.0160  0.0460  0.1355
    1DIPC   D2B21610  29.044  27.208   3.974 -0.1513 -0.2683 -0.0891
    1DIPC   D3B21611  29.233  27.298   4.322 -0.1016 -0.1649 -0.1609
    1DIPC   C4B21612  29.673  27.415   4.063 -0.1304 -0.2227 -0.0117
    1DIPC   NC321613   5.595  26.176   2.168 -0.1688  0.0991  0.2952
    1DIPC   PO421614   5.641  26.615   2.244 -0.0918 -0.2801  0.4285
    1DIPC   GL121615   5.474  26.489   2.546  0.0671 -0.0087 -0.1809
    1DIPC   GL221616   5.226  26.428   2.484 -0.0155  0.3099  0.1646
    1DIPC   C1A21617   5.475  26.476   2.940  0.0057  0.0587 -0.1618
    1DIPC   D2A21618   5.347  26.545   3.377  0.0960 -0.1213 -0.0160
    1DIPC   D3A21619   4.871  26.556   3.613  0.0297 -0.1048  0.0441
    1DIPC   C4A21620   4.588  26.898   3.687 -0.1506 -0.2157  0.3815
    1DIPC   C1B21621   4.979  26.488   2.863  0.2574  0.1604 -0.1174
    1DIPC   D2B21622   4.900  26.070   3.194 -0.4670  0.2063  0.0337
    1DIPC   D3B21623   5.022  26.061   3.612  0.0468  0.2412 -0.0985
    1DIPC   C4B21624   5.071  25.653   3.829 -0.0295  0.4174  0.1581
    1DIPC   NC321625  10.944  21.681   2.194 -0.0201  0.0503  0.1423
    1DIPC   PO421626  10.809  21.403   1.942 -0.3705  0.0503  0.0812
    1DIPC   GL121627  10.746  21.238   2.403  0.1214 -0.1495 -0.0508
    1DIPC   GL221628  10.483  20.970   2.471 -0.0722  0.2720 -0.2800
    1DIPC   C1A21629  10.935  21.123   2.749 -0.0344  0.1300  0.1843
    1DIPC   D2A21630  10.826  21.184   3.149 -0.0330  0.0914 -0.1043
    1DIPC   D3A21631  11.139  21.433   3.352  0.3980  0.1084  0.2884
    1DIPC   C4A21632  11.578  21.252   3.383  0.0423  0.5341 -0.2321
    1DIPC   C1B21633  10.352  21.034   2.964 -0.4061  0.1012  0.3181
    1DIPC   D2B21634  10.475  20.988   3.491 -0.1276  0.3218  0.1544
    1DIPC   D3B21635  10.842  21.056   3.695  0.4042 -0.1119  0.2192
    1DIPC   C4B21636  11.030  21.436   3.964 -0.1270  0.0360 -0.0083
    1DIPC   NC321637  13.815  15.809   1.983  0.0830 -0.1047  0.1765
    1DIPC   PO421638  14.073  15.906   2.355  0.1129 -0.0819  0.0291
    1DIPC   GL121639  14.027  16.087   2.667 -0.0389 -0.0297 -0.1717
    1DIPC   GL221640  14.229  16.218   2.883  0.0973  0.1321 -0.1140
    1DIPC   C1A21641  13.805  16.027   3.052  0.1246  0.5220  0.0521
    1DIPC   D2A21642  13.418  15.933   3.176  0.1307 -0.5513 -0.1939
    1DIPC   D3A21643  13.557  15.830   3.512  0.2186 -0.1747 -0.3527
    1DIPC   C4A21644  13.886  15.514   3.521  0.0781  0.1214 -0.2853
    1DIPC   C1B21645  14.379  16.327   3.246 -0.1200 -0.0367  0.2051
    1DIPC   D2B21646  14.534  16.487   3.575 -0.2390 -0.2766  0.0677
    1DIPC   D3B21647  14.790  16.534   3.873  0.2191 -0.0796  0.0881
    1DIPC   C4B21648  14.649  16.460   4.317  0.2200 -0.1055 -0.1140
    1DIPC   NC321649  17.108  29.457   3.507 -0.3074 -0.1210  0.1594
    1DIPC   PO421650  16.633  29.428   3.437 -0.2612  0.0094  0.4374
    1DIPC   GL121651  16.488  29.104   3.802  0.1672 -0.1273 -0.3453
    1DIPC   GL221652  16.846  29.117   3.797 -0.4062 -0.0181  0.1854
    1DIPC   C1A21653  16.457  29.087   4.227  0.2146  0.0995 -0.2570
    1DIPC   D2A21654  16.414  28.909   4.555 -0.3398  0.0186  0.0508
    1DIPC   D3A21655  16.181  28.773   4.931  0.0377 -0.3568 -0.1930
    1DIPC   C4A21656  16.020  28.993   5.281  0.0557 -0.2526  0.2377
    1DIPC   C1B21657  16.927  28.778   3.975 -0.1948 -0.1608  0.0362
    1DIPC   D2B21658  17.072  28.393   4.055  0.1018 -0.1397 -0.1851
    1DIPC   D3B21659  16.752  28.192   3.901  0.2442  0.0175 -0.0597
    1DIPC   C4B21660  16.419  28.292   3.604  0.2638 -0.1568  0.2997
    1DIPC   NC321661  26.742  24.362   2.934  0.1559  0.1326 -0.3022
    1DIPC   PO421662  26.941  24.514   3.311  0.0226  0.3491 -0.0154
    1DIPC   GL121663  26.990  24.724   3.664 -0.1799  0.1792  0.1038
    1DIPC   GL221664  27.043  25.007   3.500  0.2075 -0.1768 -0.0697
    1DIPC   C1A21665  26.980  24.911   4.015 -0.0543 -0.2971  0.1887
    1DIPC   D2A21666  26.700  24.873   4.318  0.2200  0.1735 -0.1440
    1DIPC   D3A21667  26.584  24.707   4.773 -0.1441 -0.1139  0.1191
    1DIPC   C4A21668  26.729  24.283   4.836 -0.1586  0.2284 -0.2190
    1DIPC   C1B21669  27.132  25.395   3.694 -0.1298 -0.0557  0.1018
    1DIPC   D2B21670  27.464  25.643   3.842  0.0325 -0.0253  0.0733
    1DIPC   D3B21671  27.152  26.098   3.950 -0.2036  0.0626  0.0127
    1DIPC   C4B21672  26.810  25.963   4.219  0.2067 -0.0775 -0.1564
    1DIPC   NC321673  11.645   2.736   3.297 -0.0799  0.2515 -0.2459
    1DIPC   PO421674  11.350   2.642   3.663  0.0882  0.3133  0.0990
    1DIPC   GL121675  11.389   2.790   4.031  0.2243  0.4120 -0.1405
    1DIPC   GL221676  11.584   2.955   4.310  0.0656 -0.2739  0.1012
    1DIPC   C1A21677  11.453   2.501   4.410 -0.0445  0.2559 -0.2374
    1DIPC   D2A21678  11.640   2.283   4.677  0.3321 -0.1675 -0.0689
    1DIPC   D3A21679  11.566   2.138   5.113  0.1763 -0.0960 -0.0171
    1DIPC   C4A21680  11.755   2.350   5.459 -0.0617 -0.0333 -0.0578
    1DIPC   C1B21681  11.648   2.928   4.806  0.1593  0.0464 -0.2341
    1DIPC   D2B21682  11.624   2.772   5.255 -0.2416  0.0805  0.0516
    1DIPC   D3B21683  11.200   2.948   5.214  0.1262  0.0916  0.2300
    1DIPC   C4B21684  11.089   2.936   4.851  0.1561 -0.1477  0.0017
    1DIPC   NC321685   9.236  25.663   1.790  0.2799 -0.1897 -0.3385
    1DIPC   PO421686   9.157  25.256   1.923 -0.1369  0.1493 -0.2576
    1DIPC   GL121687   9.073  25.394   2.286  0.1714 -0.0135 -0.2653
    1DIPC   GL221688   9.258  25.199   2.618  0.0324  0.2146  0.2698
    1DIPC   C1A21689   8.924  25.626   2.614  0.0008 -0.0069  0.1700
    1DIPC   D2A21690   9.107  25.968   2.749  0.0348 -0.0452 -0.1138
    1DIPC   D3A21691   9.518  25.811   2.666 -0.2571 -0.3446  0.1271
    1DIPC   C4A21692   9.724  25.354   2.598  0.2348 -0.0098 -0.1851
    1DIPC   C1B21693   9.426  25.369   3.053 -0.0226 -0.0078 -0.0251
    1DIPC   D2B21694   9.710  25.423   3.392  0.0400 -0.0827 -0.0926
    1DIPC   D3B21695   9.574  25.794   3.676  0.1363  0.2232 -0.0226
    1DIPC   C4B21696   9.132  26.041   3.895 -0.1471  0.3382 -0.1941
    1DIPC   NC321697  10.837  29.747   3.066  0.1607 -0.0677  0.3229
    1DIPC   PO421698  11.256  29.722   3.140 -0.0877 -0.0122 -0.1781
    1DIPC   GL121699  10.991  29.763   3.593  0.1110  0.0814  0.2861
    1DIPC   GL221700  11.115  29.504   3.743 -0.2231 -0.0691  0.0581
    1DIPC   C1A21701  10.648  29.599   4.015  0.2485  0.0040  0.0529
    1DIPC   D2A21702  10.346  29.815   3.925 -0.2247  0.0791 -0.2672
    1DIPC   D3A21703  10.377  29.671   4.444 -0.3574 -0.0325  0.0453
    1DIPC   C4A21704  10.060  29.352   4.675 -0.0073  0.1327 -0.0796
    1DIPC   C1B21705  11.460  29.772   4.037  0.0577  0.3888  0.1665
    1DIPC   D2B21706  11.685  29.642   4.385  0.0545 -0.1213 -0.1583
    1DIPC   D3B21707  11.417   0.004   4.563  0.4392  0.2157 -0.0415
    1DIPC   C4B21708  11.032  29.684   4.726  0.3819 -0.1577 -0.1457
    1DIPC   NC321709  23.628  19.584   2.594 -0.3006  0.0199 -0.1954
    1DIPC   PO421710  23.931  19.935   2.612 -0.2467 -0.1236 -0.2489
    1DIPC   GL121711  23.985  19.878   3.022  0.0993  0.1403  0.3725
    1DIPC   GL221712  23.937  20.186   3.305  0.3193 -0.3212  0.1156
    1DIPC   C1A21713  24.148  19.735   3.453  0.2638 -0.0133  0.2020
    1DIPC   D2A21714  24.243  19.994   3.772  0.0719 -0.0297  0.2964
    1DIPC   D3A21715  24.085  19.745   4.055 -0.1014  0.0539 -0.2380
    1DIPC   C4A21716  23.648  19.742   4.172 -0.2777  0.0733 -0.1101
    1DIPC   C1B21717  23.651  20.485   3.558 -0.0753 -0.2995  0.0236
    1DIPC   D2B21718  23.457  20.410   3.899  0.0021  0.1306 -0.0392
    1DIPC   D3B21719  23.398  20.847   4.016  0.1979  0.4356  0.2390
    1DIPC   C4B21720  23.195  20.734   4.335 -0.0234  0.0153  0.1458
    1DIPC   NC321721  28.673  27.205   2.504  0.2589 -0.2009 -0.0113
    1DIPC   PO421722  28.313  27.198   2.885 -0.0554 -0.0612 -0.1672
    1DIPC   GL121723  28.088  27.364   3.278 -0.3516 -0.0182 -0.0213
    1DIPC   GL221724  27.842  27.490   3.307  0.0601 -0.1240 -0.1037
    1DIPC   C1A21725  28.186  27.084   3.613 -0.1757  0.0956 -0.0792
    1DIPC   D2A21726  27.998  26.721   3.839 -0.0185  0.1503  0.1170
    1DIPC   D3A21727  27.953  26.861   4.256 -0.1510 -0.1659 -0.0787
    1DIPC   C4A21728  28.284  26.792   4.459 -0.3491  0.2690 -0.0789
    1DIPC   C1B21729  27.748  27.048   3.409 -0.0795 -0.0417  0.0364
    1DIPC   D2B21730  27.768  26.611   3.430  0.0228 -0.3018  0.0814
    1DIPC   D3B21731  27.329  26.868   3.525  0.1613  0.0514 -0.0991
    1DIPC   C4B21732  26.994  26.920   3.333 -0.0312  0.0513  0.0625
    1DIPC   NC321733  25.823  22.588   3.454 -0.1858 -0.0212  0.2271
    1DIPC   PO421734  26.115  22.932   3.369  0.4357 -0.0972 -0.0520
    1DIPC   GL121735  26.202  22.766   3.736  0.0332 -0.2154  0.2726
    1DIPC   GL221736  26.526  22.648   3.826  0.1601 -0.2769 -0.0499
    1DIPC   C1A21737  25.945  22.881   4.168  0.4897  0.1921 -0.0070
    1DIPC   D2A21738  25.916  22.967   4.610  0.2478  0.1784 -0.1637
    1DIPC   D3A21739  25.706  23.242   4.839 -0.0436 -0.0279 -0.4169
    1DIPC   C4A21740  25.564  23.695   4.965 -0.0234  0.1021  0.2529
    1DIPC   C1B21741  26.123  22.381   4.063  0.1753  0.1574 -0.1102
    1DIPC   D2B21742  25.717  22.346   3.858  0.1810 -0.0185 -0.3399
    1DIPC   D3B21743  25.541  22.760   3.808  0.0595 -0.4874 -0.2280
    1DIPC   C4B21744  25.076  22.860   3.847  0.3215 -0.0403 -0.3085
    1DIPC   NC321745   9.197  13.482   2.373 -0.2928 -0.1557  0.2640
    1DIPC   PO421746   9.324  13.020   2.528 -0.0395 -0.1653  0.1720
    1DIPC   GL121747   9.291  13.287   2.937  0.0773  0.2705  0.0641
    1DIPC   GL221748   9.487  13.169   3.323  0.3728 -0.6814  0.3779
    1DIPC   C1A21749   9.432  13.690   3.156 -0.0321  0.1593  0.0620
    1DIPC   D2A21750   9.707  13.995   3.322 -0.0224  0.1274 -0.1836
    1DIPC   D3A21751  10.002  13.711   3.075 -0.1001  0.3484  0.5063
    1DIPC   C4A21752  10.284  13.577   3.299  0.0295  0.0105  0.1498
    1DIPC   C1B21753   9.804  13.507   3.511 -0.2279  0.0491 -0.1145
    1DIPC   D2B21754  10.223  13.624   3.795  0.3380  0.0551  0.0545
    1DIPC   D3B21755  10.117  13.746   4.243 -0.2148  0.1256  0.1799
    1DIPC   C4B21756  10.046  13.388   4.550 -0.0395 -0.3468  0.1473
    1DIPC   NC321757  25.337   3.055   3.187 -0.3868  0.0648 -0.1296
    1DIPC   PO421758  25.466   3.425   3.219 -0.1591 -0.0896  0.0144
    1DIPC   GL121759  25.635   3.668   3.571 -0.0856  0.2211  0.1932
    1DIPC   GL221760  25.266   3.769   3.631 -0.1942  0.2133 -0.1447
    1DIPC   C1A21761  25.877   3.750   3.844 -0.1812  0.0639 -0.0143
    1DIPC   D2A21762  26.162   3.964   4.207 -0.2066  0.2619 -0.2808
    1DIPC   D3A21763  26.145   4.241   4.623 -0.2576  0.1018  0.0420
    1DIPC   C4A21764  25.964   4.149   5.036  0.1296  0.1214 -0.1076
    1DIPC   C1B21765  25.298   3.658   4.039 -0.0848 -0.2229  0.0809
    1DIPC   D2B21766  25.169   3.719   4.425 -0.0251  0.0652 -0.0941
    1DIPC   D3B21767  25.315   3.923   4.766  0.2345 -0.0927  0.0856
    1DIPC   C4B21768  24.943   4.029   5.025  0.0195  0.1523 -0.0943
    1DIPC   NC321769  17.468  24.672   1.432 -0.1314  0.1225 -0.1674
    1DIPC   PO421770  17.516  24.222   1.668  0.0283 -0.1902  0.1729
    1DIPC   GL121771  17.803  24.015   1.980 -0.0693  0.0466 -0.1487
    1DIPC   GL221772  17.735  24.280   2.144 -0.1332  0.0604  0.1385
    1DIPC   C1A21773  18.021  23.719   2.252 -0.1633  0.0892 -0.1917
    1DIPC   D2A21774  17.972  23.204   2.287  0.2763  0.0060 -0.0340
    1DIPC   D3A21775  18.437  23.089   2.148 -0.1959  0.0226  0.3990
    1DIPC   C4A21776  18.590  22.814   2.438 -0.0968 -0.0896 -0.0130
    1DIPC   C1B21777  17.880  24.262   2.575  0.1018  0.0925 -0.0682
    1DIPC   D2B21778  17.931  23.928   2.795  0.1272 -0.2697  0.0854
    1DIPC   D3B21779  17.939  24.119   3.239 -0.0669 -0.1778  0.4100
    1DIPC   C4B21780  17.842  24.612   3.476 -0.1941  0.1987  0.2390
    1DIPC   NC321781   6.061  26.851   2.195 -0.2993 -0.3307  0.3444
    1DIPC   PO421782   6.182  26.423   2.189  0.3340  0.0049  0.0132
    1DIPC   GL121783   5.971  26.185   2.496 -0.0760  0.0257  0.0649
    1DIPC   GL221784   5.964  25.858   2.303  0.0285 -0.1593 -0.1329
    1DIPC   C1A21785   6.120  26.031   2.856 -0.0763 -0.4984  0.1642
    1DIPC   D2A21786   6.189  25.826   3.220 -0.1859  0.2853  0.0291
    1DIPC   D3A21787   5.766  25.803   3.243 -0.1899 -0.0586  0.3509
    1DIPC   C4A21788   5.434  26.057   3.232  0.1397  0.1784 -0.1687
    1DIPC   C1B21789   5.644  25.900   2.714 -0.1255 -0.2597 -0.0865
    1DIPC   D2B21790   5.172  26.042   2.727 -0.0403  0.0377  0.2460
    1DIPC   D3B21791   5.212  25.681   3.067 -0.0457 -0.1192  0.0397
    1DIPC   C4B21792   4.818  25.581   3.351 -0.0163  0.1463 -0.3781
    1DIPC   NC321793   6.018   8.909   2.660  0.2566 -0.0728  0.2468
    1DIPC   PO421794   6.170   9.184   3.022  0.0066  0.2517 -0.0334
    1DIPC   GL121795   6.204   9.202   3.494  0.1897 -0.2096 -0.0478
    1DIPC   GL221796   6.135   8.898   3.422  0.1410 -0.2286 -0.2379
    1DIPC   C1A21797   6.213   9.040   3.874 -0.2368  0.3125  0.1332
    1DIPC   D2A21798   5.943   8.917   4.168  0.0038 -0.0388  0.1949
    1DIPC   D3A21799   5.647   8.613   3.919 -0.3789 -0.0713 -0.0650
    1DIPC   C4A21800   5.448   8.120   4.092  0.1713 -0.1056  0.0911
    1DIPC   C1B21801   6.139   8.585   3.738  0.2682  0.0645  0.2729
    1DIPC   D2B21802   6.116   8.439   4.141  0.2908  0.0263 -0.2413
    1DIPC   D3B21803   6.332   8.330   4.598  0.1921  0.3411  0.3548
    1DIPC   C4B21804   6.388   7.902   4.655 -0.1628  0.1736  0.2797
    1DIPC   NC321805  11.943   4.512   4.133 -0.1369 -0.0580  0.1657
    1DIPC   PO421806  12.127   4.178   4.417  0.0572 -0.0887 -0.0356
    1DIPC   GL121807  11.839   4.540   4.613 -0.0871  0.2677  0.0555
    1DIPC   GL221808  11.525   4.688   4.417  0.0881 -0.0867  0.0695
    1DIPC   C1A21809  11.818   4.813   4.888 -0.1848  0.1210 -0.2704
    1DIPC   D2A21810  11.622   5.088   5.087 -0.0312 -0.1495  0.2604
    1DIPC   D3A21811  11.652   5.288   5.555 -0.3792 -0.0714  0.2017
    1DIPC   C4A21812  11.496   5.718   5.542  0.0415 -0.0206  0.0310
    1DIPC   C1B21813  11.139   4.844   4.584 -0.1309 -0.0240  0.0483
    1DIPC   D2B21814  10.790   4.906   4.872 -0.1305 -0.0037 -0.2822
    1DIPC   D3B21815  10.843   5.240   5.203  0.2929 -0.2643 -0.0939
    1DIPC   C4B21816  10.523   5.500   5.418 -0.0510 -0.3725  0.1753
    1DIPC   NC321817  29.508  23.166   2.387  0.0548 -0.2843 -0.0314
    1DIPC   PO421818  29.236  23.012   2.767 -0.0653  0.3126  0.0394
    1DIPC   GL121819  29.305  23.287   3.211  0.2826  0.0531 -0.1215
    1DIPC   GL221820  29.411  23.545   3.184  0.0682 -0.1887  0.0143
    1DIPC   C1A21821  29.454  23.117   3.638  0.0447  0.0183 -0.3572
    1DIPC   D2A21822  29.324  23.092   4.099 -0.0553  0.1261 -0.1178
    1DIPC   D3A21823  29.578  23.439   4.050  0.4906  0.0083 -0.0749
    1DIPC   C4A21824  29.687  23.619   3.654  0.2672 -0.0129  0.0623
    1DIPC   C1B21825  29.248  23.829   3.504 -0.4210 -0.1977  0.1120
    1DIPC   D2B21826  29.378  23.984   3.847  0.1938 -0.1388  0.1172
    1DIPC   D3B21827  29.198  24.150   4.271 -0.3413 -0.2770  0.2015
    1DIPC   C4B21828  28.804  24.196   4.269  0.2043  0.0350 -0.1025
    1DIPC   NC321829  20.739  18.554   2.129  0.1925 -0.2792  0.1182
    1DIPC   PO421830  21.163  18.439   2.084  0.2974  0.0648 -0.5080
    1DIPC   GL121831  21.197  18.694   2.475 -0.0407  0.2013 -0.0577
    1DIPC   GL221832  20.960  18.757   2.596  0.0737  0.2516  0.1882
    1DIPC   C1A21833  21.349  18.957   2.892  0.0134 -0.2148  0.2570
    1DIPC   D2A21834  21.642  19.023   3.297  0.3609 -0.1568  0.1942
    1DIPC   D3A21835  21.226  19.155   3.531 -0.1497 -0.0385 -0.0937
    1DIPC   C4A21836  20.912  19.514   3.649 -0.0931  0.2427 -0.0980
    1DIPC   C1B21837  20.752  18.769   3.082 -0.1662 -0.2911  0.1005
    1DIPC   D2B21838  20.745  18.477   3.535 -0.0208 -0.1228  0.1278
    1DIPC   D3B21839  21.121  18.691   3.362 -0.1675  0.0558 -0.1760
    1DIPC   C4B21840  21.399  18.642   3.665  0.1347 -0.1180  0.2839
    1DIPC   NC321841   2.572   3.316   2.523  0.0848  0.1103  0.1204
    1DIPC   PO421842   2.834   3.541   2.884 -0.0468  0.1541 -0.0129
    1DIPC   GL121843   2.800   3.521   3.328 -0.0482 -0.0508 -0.0094
    1DIPC   GL221844   3.093   3.487   3.653 -0.0759 -0.0614 -0.1307
    1DIPC   C1A21845   2.553   3.496   3.744 -0.2077 -0.1649  0.0051
    1DIPC   D2A21846   2.500   3.819   4.090 -0.1428  0.0674  0.2019
    1DIPC   D3A21847   2.039   3.835   4.128 -0.5392  0.1427 -0.3284
    1DIPC   C4A21848   1.910   3.505   3.882  0.1970  0.0359  0.0909
    1DIPC   C1B21849   3.003   3.451   3.974 -0.1585  0.0550 -0.0397
    1DIPC   D2B21850   2.828   3.307   4.283 -0.0371 -0.2557 -0.0381
    1DIPC   D3B21851   3.119   3.240   4.554  0.1127 -0.1570 -0.5741
    1DIPC   C4B21852   3.009   3.119   4.936 -0.1224  0.0418 -0.0266
    1DIPC   NC321853   9.652  27.755   2.701 -0.1700  0.1140 -0.0910
    1DIPC   PO421854  10.067  27.664   2.736 -0.1097 -0.0949 -0.1045
    1DIPC   GL121855  10.012  27.436   3.081 -0.0873 -0.0949 -0.0092
    1DIPC   GL221856  10.295  27.269   3.294 -0.1008 -0.2509 -0.0035
    1DIPC   C1A21857   9.696  27.461   3.424  0.0143  0.0387  0.1225
    1DIPC   D2A21858   9.509  27.186   3.767 -0.1863  0.0740  0.0759
    1DIPC   D3A21859   9.411  27.230   4.176  0.0129  0.1106 -0.1068
    1DIPC   C4A21860   9.795  27.347   4.369  0.0484  0.0081 -0.0277
    1DIPC   C1B21861  10.661  27.251   3.528  0.1732 -0.1756 -0.1092
    1DIPC   D2B21862  10.853  27.177   3.807  0.0374 -0.2635  0.1658
    1DIPC   D3B21863  11.210  26.923   3.450  0.1943  0.1598  0.1546
    1DIPC   C4B21864  11.235  26.539   3.199  0.1973 -0.0423  0.1148
    1DIPC   NC321865  19.763  29.006   3.101  0.0883  0.2243  0.1075
    1DIPC   PO421866  20.116  29.070   3.359  0.1408  0.0768  0.1493
    1DIPC   GL121867  19.963  28.868   3.664 -0.3243  0.2728 -0.0361
    1DIPC   GL221868  20.259  28.681   3.872  0.3453 -0.0500  0.5032
    1DIPC   C1A21869  19.822  28.463   3.731 -0.1793  0.2834 -0.1368
    1DIPC   D2A21870  20.017  28.147   4.004  0.3103 -0.0103 -0.0437
    1DIPC   D3A21871  19.847  27.873   4.383  0.1478  0.2553 -0.3609
    1DIPC   C4A21872  19.994  28.063   4.803  0.1797  0.1995  0.3068
    1DIPC   C1B21873  20.463  28.782   4.213  0.1338 -0.0479  0.0487
    1DIPC   D2B21874  20.864  28.879   4.412 -0.1175 -0.2989 -0.0987
    1DIPC   D3B21875  20.789  28.987   4.920 -0.0684 -0.2325  0.1763
    1DIPC   C4B21876  20.435  28.796   4.981  0.1487  0.0265 -0.0562
    1DIPC   NC321877   0.827  29.313   1.955  0.0178  0.1451 -0.1326
    1DIPC   PO421878   1.044  28.932   2.048 -0.1993  0.0785  0.2433
    1DIPC   GL121879   1.056  29.082   2.473  0.2410 -0.0684  0.0432
    1DIPC   GL221880   1.288  28.779   2.454 -0.2351  0.0930 -0.1424
    1DIPC   C1A21881   0.834  28.983   2.847 -0.0323  0.0729  0.4752
    1DIPC   D2A21882   0.533  28.721   2.971 -0.3744  0.0173 -0.4581
    1DIPC   D3A21883   0.761  28.312   3.136  0.1624  0.0511 -0.0107
    1DIPC   C4A21884   0.875  28.179   3.575 -0.4041 -0.1876  0.1958
    1DIPC   C1B21885   1.338  28.748   2.859 -0.0700  0.0058 -0.4114
    1DIPC   D2B21886   1.593  28.438   3.119  0.0336  0.0183 -0.2128
    1DIPC   D3B21887   1.250  28.482   3.323 -0.2831  0.0405 -0.0016
    1DIPC   C4B21888   0.812  28.742   3.339 -0.0037 -0.0869  0.0170
    1DIPC   NC321889  25.274  27.063   2.965  0.3220  0.1578  0.1230
    1DIPC   PO421890  24.849  26.990   3.280  0.0027  0.0063  0.2324
    1DIPC   GL121891  24.483  26.835   3.542  0.1369  0.0124 -0.2379
    1DIPC   GL221892  24.294  27.098   3.582 -0.2480  0.1327 -0.0533
    1DIPC   C1A21893  24.334  26.709   3.889  0.0837 -0.0505  0.4029
    1DIPC   D2A21894  24.446  26.874   4.397  0.2692 -0.1146  0.0560
    1DIPC   D3A21895  24.211  27.135   4.598  0.3684 -0.0557  0.1398
    1DIPC   C4A21896  23.885  27.422   4.392 -0.0253  0.0718 -0.1517
    1DIPC   C1B21897  24.332  27.216   4.075  0.1638  0.0077 -0.3874
    1DIPC   D2B21898  24.371  27.635   4.262 -0.0868 -0.0259 -0.3622
    1DIPC   D3B21899  24.541  27.551   4.622 -0.1504 -0.1608 -0.3120
    1DIPC   C4B21900  24.644  27.947   4.877  0.0509  0.1623  0.0427
    1DIPC   NC321901   1.023  14.487   2.222  0.1657 -0.1883 -0.2177
    1DIPC   PO421902   1.310  14.187   2.601 -0.5211 -0.1869 -0.0436
    1DIPC   GL121903   1.346  14.226   3.028  0.1867 -0.3274 -0.0307
    1DIPC   GL221904   1.081  14.111   3.108 -0.1068 -0.0433  0.2491
    1DIPC   C1A21905   1.434  14.379   3.477 -0.2427 -0.4031  0.0530
    1DIPC   D2A21906   1.391  14.632   3.817 -0.0364 -0.0486  0.1129
    1DIPC   D3A21907   1.076  14.453   3.999 -0.1366  0.2762  0.1105
    1DIPC   C4A21908   0.568  14.622   4.041 -0.0106  0.0016  0.1208
    1DIPC   C1B21909   0.952  13.945   3.470  0.0890  0.0294 -0.0293
    1DIPC   D2B21910   1.012  13.993   3.907 -0.0294  0.0978 -0.2033
    1DIPC   D3B21911   1.479  14.149   3.905  0.0784  0.0717 -0.0631
    1DIPC   C4B21912   1.580  14.170   4.269 -0.0115 -0.1560 -0.0737
    1DIPC   NC321913  16.195  15.777   2.107  0.0360  0.0531 -0.4890
    1DIPC   PO421914  16.537  16.019   2.288  0.2443 -0.1261 -0.1555
    1DIPC   GL121915  16.569  15.935   2.777 -0.2813 -0.0105  0.0291
    1DIPC   GL221916  16.352  15.822   2.926 -0.2073  0.0266  0.1811
    1DIPC   C1A21917  16.752  16.124   3.132 -0.2057 -0.2882 -0.0857
    1DIPC   D2A21918  16.836  16.140   3.544 -0.0707  0.0669  0.1815
    1DIPC   D3A21919  17.223  16.053   3.386  0.1083 -0.0588 -0.0036
    1DIPC   C4A21920  17.357  15.614   3.438 -0.1492 -0.1401 -0.0465
    1DIPC   C1B21921  16.320  15.900   3.302 -0.1132  0.0490 -0.0776
    1DIPC   D2B21922  16.234  15.917   3.720 -0.1667  0.2055 -0.1730
    1DIPC   D3B21923  16.491  16.243   3.937  0.3181 -0.1910  0.2737
    1DIPC   C4B21924  16.571  16.671   4.237 -0.2905 -0.2777 -0.1956
    1DIPC   NC321925  14.176  28.587   2.950  0.0413 -0.0845  0.2727
    1DIPC   PO421926  14.299  28.101   2.895 -0.2345 -0.1813 -0.1248
    1DIPC   GL121927  14.556  28.104   3.300 -0.0946  0.1343 -0.0449
    1DIPC   GL221928  14.621  27.745   3.324 -0.3796  0.1831  0.1392
    1DIPC   C1A21929  14.814  28.062   3.658  0.0820  0.0431  0.0110
    1DIPC   D2A21930  15.288  28.107   3.961  0.1555 -0.0732 -0.0070
    1DIPC   D3A21931  14.989  28.528   4.010 -0.1892 -0.1823  0.1644
    1DIPC   C4A21932  15.014  28.993   4.172  0.0328  0.2833  0.1510
    1DIPC   C1B21933  14.451  27.751   3.707  0.1543 -0.0850  0.2140
    1DIPC   D2B21934  14.310  27.853   4.110 -0.1166  0.1186 -0.1656
    1DIPC   D3B21935  14.123  27.619   4.461  0.0926  0.1594 -0.0694
    1DIPC   C4B21936  13.698  27.586   4.460 -0.0942  0.0290  0.2593
    1DIPC   NC321937  11.111   3.073   3.697 -0.1785  0.0696 -0.0967
    1DIPC   PO421938  10.932   3.464   3.930  0.0632  0.4377  0.3298
    1DIPC   GL121939  10.727   3.270   4.274  0.2339  0.0687 -0.0764
    1DIPC   GL221940  10.359   3.277   4.243 -0.0605  0.1349  0.0184
    1DIPC   C1A21941  10.546   2.897   4.366 -0.0955  0.0595 -0.0607
    1DIPC   D2A21942  10.314   2.591   4.647  0.1897  0.2911  0.1285
    1DIPC   D3A21943  10.524   2.861   4.932 -0.1201  0.2287 -0.0358
    1DIPC   C4A21944  10.753   2.585   5.128 -0.1002 -0.0857 -0.1395
    1DIPC   C1B21945  10.216   3.578   4.587 -0.0925  0.1668  0.0558
    1DIPC   D2B21946  10.016   3.832   4.942 -0.1563  0.2225 -0.1910
    1DIPC   D3B21947   9.596   4.054   4.864 -0.2673 -0.0866  0.1419
    1DIPC   C4B21948   9.305   4.302   5.144  0.2145 -0.1616  0.1642
    1DIPC   NC321949   5.544   5.685   2.857  0.1059  0.3200  0.1169
    1DIPC   PO421950   5.733   5.458   3.239 -0.0839 -0.1267  0.0955
    1DIPC   GL121951   5.715   5.640   3.672 -0.0323 -0.1683 -0.1913
    1DIPC   GL221952   5.529   5.441   3.900 -0.3190 -0.0510  0.2241
    1DIPC   C1A21953   6.004   5.501   3.974 -0.3489  0.0449 -0.3129
    1DIPC   D2A21954   6.034   5.751   4.380 -0.0044 -0.3868  0.4509
    1DIPC   D3A21955   5.595   5.875   4.191 -0.1317  0.0111  0.0143
    1DIPC   C4A21956   5.353   6.116   4.401 -0.0808 -0.2139 -0.1352
    1DIPC   C1B21957   5.695   5.410   4.418  0.0397 -0.1268  0.0698
    1DIPC   D2B21958   5.915   5.408   4.751 -0.1407 -0.1037  0.0973
    1DIPC   D3B21959   5.986   5.590   5.135  0.2084 -0.0645  0.0288
    1DIPC   C4B21960   5.945   6.046   5.353 -0.0266 -0.1404 -0.0517
    1DIPC   NC321961  29.302  21.415   2.777 -0.1822 -0.1253  0.0421
    1DIPC   PO421962  29.785  21.367   2.777 -0.1174  0.0774 -0.2799
    1DIPC   GL121963   0.004  21.303   3.189  0.0157 -0.1767  0.1547
    1DIPC   GL221964   0.124  21.638   3.318  0.0598  0.0868 -0.1414
    1DIPC   C1A21965  29.841  21.299   3.648 -0.2960  0.2421 -0.1269
    1DIPC   D2A21966   0.137  21.475   4.081  0.1874 -0.0189  0.0703
    1DIPC   D3A21967  29.829  21.400   4.487 -0.0462 -0.0201  0.2026
    1DIPC   C4A21968  29.459  21.428   4.381  0.2514 -0.0789  0.0428
    1DIPC   C1B21969   0.244  21.736   3.705  0.0276  0.0702  0.1031
    1DIPC   D2B21970   0.234  21.961   4.095  0.0188  0.1102  0.2903
    1DIPC   D3B21971   0.533  21.807   4.388  0.2112 -0.1443 -0.2986
    1DIPC   C4B21972   0.590  21.552   4.596 -0.0303  0.1647 -0.1422
    1DIPC   NC321973   0.732  21.430   2.613 -0.0710 -0.0371  0.0077
    1DIPC   PO421974   0.494  21.709   2.509  0.1933 -0.0127 -0.0106
    1DIPC   GL121975   0.676  21.733   2.966 -0.1403 -0.2965 -0.1047
    1DIPC   GL221976   1.003  21.849   3.131 -0.1060 -0.1667 -0.1388
    1DIPC   C1A21977   0.599  21.533   3.274 -0.4600  0.0351 -0.1015
    1DIPC   D2A21978   0.676  21.414   3.642  0.1638 -0.0816 -0.0917
    1DIPC   D3A21979   0.813  21.600   4.064  0.0693 -0.0227 -0.1955
    1DIPC   C4A21980   0.990  21.943   4.211  0.2039 -0.1095  0.0403
    1DIPC   C1B21981   1.134  21.603   3.552 -0.2064  0.0077 -0.1955
    1DIPC   D2B21982   1.369  21.738   3.878 -0.1875  0.0264 -0.2029
    1DIPC   D3B21983   1.264  21.542   4.308 -0.0106 -0.1589 -0.2036
    1DIPC   C4B21984   1.607  21.567   4.653 -0.1706  0.2316 -0.0664
    1DIPC   NC321985   6.178   5.331   3.097  0.1614 -0.1639 -0.0919
    1DIPC   PO421986   6.018   5.710   2.858  0.2787  0.3839 -0.0022
    1DIPC   GL121987   6.193   5.875   3.329  0.1558 -0.0295 -0.1165
    1DIPC   GL221988   6.230   5.659   3.529  0.0717 -0.3227 -0.1203
    1DIPC   C1A21989   6.019   6.021   3.828  0.2163 -0.0112 -0.2008
    1DIPC   D2A21990   5.886   6.285   4.100  0.0776 -0.0270  0.2711
    1DIPC   D3A21991   5.930   6.217   4.482 -0.0710  0.1728  0.0526
    1DIPC   C4A21992   6.191   5.940   4.825  0.0336 -0.3582 -0.1605
    1DIPC   C1B21993   6.439   5.233   3.806 -0.1380 -0.0299  0.0179
    1DIPC   D2B21994   6.498   4.810   4.109 -0.3952 -0.1509  0.3430
    1DIPC   D3B21995   6.578   4.577   4.485  0.5267 -0.1179  0.0497
    1DIPC   C4B21996   6.796   4.876   4.770 -0.4899 -0.0988  0.0096
    1DIPC   NC321997  15.579  15.105   2.160 -0.0968 -0.0977  0.1465
    1DIPC   PO421998  15.118  14.925   2.183  0.0119  0.3833  0.0209
    1DIPC   GL121999  15.256  15.023   2.526  0.1227 -0.2610  0.5923
    1DIPC   GL222000  15.526  15.188   2.672 -0.0428  0.1128  0.1006
    1DIPC   C1A22001  15.057  14.895   2.910 -0.1491 -0.1918  0.0816
    1DIPC   D2A22002  14.933  15.075   3.312  0.1105 -0.1096  0.2268
    1DIPC   D3A22003  14.993  14.927   3.716  0.0572  0.1456  0.1459
    1DIPC   C4A22004  15.268  15.224   3.928  0.1490 -0.0898  0.2100
    1DIPC   C1B22005  15.506  15.148   3.065  0.0336 -0.0102 -0.1599
    1DIPC   D2B22006  15.469  15.353   3.345  0.1655 -0.2839 -0.3798
    1DIPC   D3B22007  15.538  15.051   3.551 -0.0744 -0.0796 -0.4581
    1DIPC   C4B22008  15.831  14.927   3.815 -0.0756 -0.1873  0.1348
    1DIPC   NC322009  29.413  10.078   2.319  0.1524  0.1449  0.0438
    1DIPC   PO422010  29.318  10.021   2.774 -0.2493  0.2033  0.0371
    1DIPC   GL122011  29.667  10.153   3.103  0.2579 -0.3665 -0.0146
    1DIPC   GL222012   0.007  10.026   3.014  0.2152  0.2488  0.2257
    1DIPC   C1A22013  29.637  10.365   3.518 -0.0851 -0.0394 -0.0206
    1DIPC   D2A22014   0.102  10.475   3.773 -0.0750 -0.3071 -0.1008
    1DIPC   D3A22015   0.080  10.433   4.210  0.2411  0.1879 -0.1576
    1DIPC   C4A22016  29.533  10.678   4.512 -0.3345  0.0538  0.1168
    1DIPC   C1B22017   0.143  10.025   3.449  0.2477  0.0502  0.1620
    1DIPC   D2B22018  29.748   9.977   3.816  0.4015 -0.1080  0.0343
    1DIPC   D3B22019  29.461  10.232   4.076 -0.0386  0.0151  0.0106
    1DIPC   C4B22020  29.554  10.172   4.501  0.1362 -0.1222 -0.0604
    1DIPC   NC322021   9.688   5.932   3.487  0.1337  0.1264  0.0476
    1DIPC   PO422022   9.444   6.243   3.459 -0.0619 -0.0418  0.1265
    1DIPC   GL122023   9.313   6.428   3.723  0.1945  0.1460  0.1668
    1DIPC   GL222024   9.286   6.157   3.917 -0.2045  0.1411 -0.2198
    1DIPC   C1A22025   9.121   6.595   4.116 -0.1293  0.2864 -0.0455
    1DIPC   D2A22026   8.927   6.540   4.623  0.0661  0.1215 -0.2445
    1DIPC   D3A22027   9.239   6.773   4.754  0.0699 -0.4258 -0.1498
    1DIPC   C4A22028   9.475   6.904   4.488 -0.0179 -0.1852  0.0747
    1DIPC   C1B22029   9.111   6.108   4.322  0.0464  0.3938 -0.1454
    1DIPC   D2B22030   8.905   5.958   4.707  0.1650  0.0863  0.0746
    1DIPC   D3B22031   9.209   6.225   4.844 -0.0475 -0.4613 -0.1840
    1DIPC   C4B22032   9.354   6.038   5.106 -0.0614  0.1768 -0.0931
    1DIPC   NC322033  29.026   8.908   2.408 -0.2478 -0.0334  0.1486
    1DIPC   PO422034  28.641   9.189   2.693  0.1111 -0.2455 -0.1542
    1DIPC   GL122035  28.446   8.992   3.071  0.1223  0.2163 -0.2322
    1DIPC   GL222036  28.165   8.965   3.275  0.0817 -0.0824  0.0250
    1DIPC   C1A22037  28.623   8.981   3.443  0.3307  0.0517 -0.0659
    1DIPC   D2A22038  28.753   8.580   3.647 -0.0166  0.0695 -0.0435
    1DIPC   D3A22039  28.666   8.565   4.157  0.0014 -0.2535 -0.0928
    1DIPC   C4A22040  28.637   8.418   4.622 -0.2021 -0.4599 -0.0372
    1DIPC   C1B22041  28.232   9.180   3.687  0.0304  0.1993 -0.0036
    1DIPC   D2B22042  28.235   9.536   3.978  0.1399 -0.1844  0.1538
    1DIPC   D3B22043  27.916   9.350   4.106 -0.0518 -0.1094  0.1955
    1DIPC   C4B22044  27.579   9.697   4.313  0.0736  0.0255 -0.0666
    1DIPC   NC322045   2.949   1.827   2.363 -0.1282  0.1365  0.1789
    1DIPC   PO422046   2.571   1.532   2.558  0.0372  0.2433 -0.2079
    1DIPC   GL122047   2.360   1.513   3.045  0.4640 -0.1705 -0.1393
    1DIPC   GL222048   2.431   1.173   3.172 -0.2769 -0.3518 -0.0930
    1DIPC   C1A22049   2.076   1.458   3.391 -0.3144  0.1280  0.0375
    1DIPC   D2A22050   2.312   1.536   3.778 -0.2785 -0.0137  0.0886
    1DIPC   D3A22051   2.313   1.752   4.142 -0.1038 -0.0354  0.0213
    1DIPC   C4A22052   2.143   1.439   4.387 -0.1311 -0.3754  0.2074
    1DIPC   C1B22053   2.526   1.073   3.541 -0.2297 -0.0598  0.1649
    1DIPC   D2B22054   2.386   1.165   4.041 -0.0391  0.0314  0.1087
    1DIPC   D3B22055   2.615   0.779   3.906  0.1392  0.1964 -0.0428
    1DIPC   C4B22056   2.430   0.324   4.045  0.0171 -0.0439 -0.1197
    1DIPC   NC322057  23.528   3.737   3.174 -0.1207 -0.2522 -0.0142
    1DIPC   PO422058  23.525   4.277   3.304  0.0298 -0.1353  0.3205
    1DIPC   GL122059  23.579   4.241   3.795  0.1991 -0.1076 -0.2185
    1DIPC   GL222060  23.281   4.340   3.901  0.2689 -0.1293 -0.3310
    1DIPC   C1A22061  23.932   4.166   4.077  0.0969  0.0003  0.2005
    1DIPC   D2A22062  24.224   4.078   4.321  0.2072  0.0922 -0.1462
    1DIPC   D3A22063  24.517   4.481   4.142  0.0406  0.2018  0.2082
    1DIPC   C4A22064  24.827   4.491   4.440 -0.2606 -0.2360 -0.2156
    1DIPC   C1B22065  23.471   4.339   4.381 -0.0346  0.1179  0.2180
    1DIPC   D2B22066  23.813   4.349   4.519 -0.1016  0.0309  0.2865
    1DIPC   D3B22067  23.768   4.503   4.914  0.1113  0.1930 -0.3014
    1DIPC   C4B22068  23.724   4.547   5.316  0.1746 -0.1508 -0.0857
    1DIPC   NC322069   5.630  16.826   2.725  0.2995  0.0827 -0.0114
    1DIPC   PO422070   5.465  16.598   3.076  0.2016  0.3063 -0.1932
    1DIPC   GL122071   5.274  16.639   3.489  0.2318  0.1757  0.0990
    1DIPC   GL222072   5.514  16.767   3.584 -0.3086 -0.1973 -0.1286
    1DIPC   C1A22073   5.098  16.712   3.911 -0.1288  0.3961 -0.0606
    1DIPC   D2A22074   5.383  16.674   4.271  0.1035 -0.0887 -0.0913
    1DIPC   D3A22075   5.032  16.529   4.639  0.0095 -0.2773  0.2545
    1DIPC   C4A22076   4.641  16.497   4.386 -0.3740  0.2545 -0.1788
    1DIPC   C1B22077   5.649  16.970   3.983  0.0596 -0.2744  0.2029
    1DIPC   D2B22078   5.801  16.954   4.460 -0.1556  0.0445  0.1359
    1DIPC   D3B22079   5.857  17.433   4.241  0.0769 -0.0569  0.2653
    1DIPC   C4B22080   5.580  17.545   4.134  0.0590 -0.1434 -0.1462
    1DIPC   NC322081   4.811  18.856   3.023 -0.3397 -0.2032 -0.1043
    1DIPC   PO422082   4.681  18.490   3.344 -0.2073 -0.0829  0.0062
    1DIPC   GL122083   4.654  18.516   3.783  0.1885  0.1171  0.0991
    1DIPC   GL222084   4.357  18.521   3.757  0.1038 -0.1085  0.2394
    1DIPC   C1A22085   4.683  18.722   4.143  0.1205 -0.0646  0.3495
    1DIPC   D2A22086   4.789  19.056   4.420 -0.3395  0.1807  0.1003
    1DIPC   D3A22087   4.709  18.599   4.629  0.1074 -0.2168 -0.1545
    1DIPC   C4A22088   4.566  18.251   4.487 -0.1571  0.1476  0.3922
    1DIPC   C1B22089   4.233  18.551   4.189  0.3419 -0.0273  0.0097
    1DIPC   D2B22090   4.080  18.564   4.596 -0.5437  0.0308 -0.3220
    1DIPC   D3B22091   3.933  18.203   4.412 -0.0360  0.1737 -0.2578
    1DIPC   C4B22092   3.495  18.143   4.438  0.2154  0.1789 -0.0471
    1DIPC   NC322093   7.123  22.781   2.210 -0.0707  0.3201 -0.1134
    1DIPC   PO422094   7.597  22.896   2.243  0.3034 -0.2897  0.2417
    1DIPC   GL122095   7.332  22.854   2.651  0.2864 -0.0431  0.1141
    1DIPC   GL222096   7.154  22.613   2.678  0.1175  0.0487 -0.0332
    1DIPC   C1A22097   7.248  22.937   3.049  0.2463 -0.0293 -0.0008
    1DIPC   D2A22098   6.970  22.951   3.428 -0.1485  0.0818  0.1098
    1DIPC   D3A22099   7.351  23.174   3.475 -0.0981 -0.1458  0.0091
    1DIPC   C4A22100   7.832  23.251   3.296 -0.1300  0.0959 -0.3880
    1DIPC   C1B22101   7.263  22.428   3.038 -0.3038  0.0472  0.1183
    1DIPC   D2B22102   7.067  22.490   3.481  0.4005 -0.4331  0.0796
    1DIPC   D3B22103   6.821  22.553   3.796  0.0552 -0.1153 -0.2977
    1DIPC   C4B22104   6.627  23.010   3.813 -0.2473  0.1825 -0.2930
    1DIPC   NC322105   6.507  25.452   2.387  0.0035  0.0496 -0.0085
    1DIPC   PO422106   6.627  25.081   2.578 -0.0361  0.0503  0.1590
    1DIPC   GL122107   6.567  25.327   2.914 -0.1327 -0.1257  0.0364
    1DIPC   GL222108   6.552  25.741   2.841  0.1964  0.2729  0.1428
    1DIPC   C1A22109   6.251  25.372   3.180 -0.1979 -0.0418 -0.2901
    1DIPC   D2A22110   6.044  25.077   3.495 -0.0994 -0.0964 -0.1221
    1DIPC   D3A22111   6.102  25.158   3.889  0.2292 -0.3927  0.2456
    1DIPC   C4A22112   6.281  25.454   4.165 -0.0875  0.0763  0.1538
    1DIPC   C1B22113   6.640  25.703   3.333  0.1363 -0.0194 -0.2888
    1DIPC   D2B22114   6.415  25.879   3.785  0.0783 -0.0457 -0.2126
    1DIPC   D3B22115   6.789  26.223   3.976  0.1118  0.0993  0.0480
    1DIPC   C4B22116   7.048  26.607   3.764 -0.0891 -0.0161 -0.0918
    1DIPC   NC322117   8.525  21.776   2.227 -0.1101 -0.1940  0.1664
    1DIPC   PO422118   8.820  22.159   2.244  0.3173 -0.0404 -0.2407
    1DIPC   GL122119   8.740  22.336   2.619 -0.0742  0.0881 -0.0420
    1DIPC   GL222120   8.470  22.118   2.674 -0.3167 -0.1567 -0.2383
    1DIPC   C1A22121   8.803  22.384   3.045 -0.0965 -0.2788 -0.0159
    1DIPC   D2A22122   8.579  22.480   3.469  0.1563 -0.1098  0.1466
    1DIPC   D3A22123   8.989  22.643   3.577 -0.2172 -0.0441 -0.3416
    1DIPC   C4A22124   9.331  22.457   3.723 -0.2050  0.0677  0.0768
    1DIPC   C1B22125   8.337  22.528   2.962 -0.2782  0.1035  0.1517
    1DIPC   D2B22126   8.124  22.814   3.184  0.2714  0.0572  0.1957
    1DIPC   D3B22127   8.106  22.511   3.405 -0.0086 -0.4106  0.0489
    1DIPC   C4B22128   7.885  22.339   3.762  0.3170  0.1195 -0.3154
    1DIPC   NC322129  28.321  19.735   2.558  0.0753 -0.1013 -0.2046
    1DIPC   PO422130  28.655  19.396   2.655  0.1422 -0.0638 -0.1138
    1DIPC   GL122131  28.547  19.699   3.000 -0.2789  0.0319 -0.0769
    1DIPC   GL222132  28.885  19.777   2.970 -0.2192  0.0593  0.0768
    1DIPC   C1A22133  28.495  19.943   3.383  0.1341  0.0724 -0.3556
    1DIPC   D2A22134  28.312  19.934   3.801  0.1683 -0.2154 -0.2070
    1DIPC   D3A22135  28.630  19.589   3.972  0.1516  0.3193 -0.4311
    1DIPC   C4A22136  28.668  19.214   4.343 -0.0680  0.0501  0.3999
    1DIPC   C1B22137  29.045  19.486   3.235  0.1848  0.1525 -0.0317
    1DIPC   D2B22138  29.032  19.408   3.656 -0.2189  0.0842 -0.0816
    1DIPC   D3B22139  28.909  19.860   3.612 -0.1484 -0.0530 -0.1233
    1DIPC   C4B22140  28.916  20.170   3.289 -0.4270 -0.0236 -0.1958
    1DIPC   NC322141  10.615  19.475   2.435  0.0463  0.2269  0.2037
    1DIPC   PO422142  10.630  19.013   2.507 -0.0359  0.2243 -0.3350
    1DIPC   GL122143  10.825  19.274   2.837  0.1129  0.0404  0.0258
    1DIPC   GL222144  11.164  19.360   2.817 -0.1614  0.2507  0.0537
    1DIPC   C1A22145  10.705  19.475   3.216 -0.0689  0.0417  0.4307
    1DIPC   D2A22146  10.571  19.537   3.643 -0.0822  0.0676  0.0182
    1DIPC   D3A22147  10.516  19.383   4.014  0.0851 -0.0780  0.1337
    1DIPC   C4A22148  10.104  19.314   4.097  0.1510 -0.0262 -0.0442
    1DIPC   C1B22149  11.147  19.482   3.299 -0.2096  0.1503  0.3077
    1DIPC   D2B22150  11.168  19.483   3.723  0.1850 -0.3154 -0.1541
    1DIPC   D3B22151  11.385  19.823   4.008  0.3981 -0.1572  0.1846
    1DIPC   C4B22152  11.863  19.828   3.930 -0.3089  0.0827 -0.1735
    1DIPC   NC322153   5.937   4.478   2.718  0.0296 -0.0512 -0.0373
    1DIPC   PO422154   5.892   4.862   3.048 -0.0695 -0.0685  0.1686
    1DIPC   GL122155   5.873   4.770   3.538  0.4010  0.2506 -0.2945
    1DIPC   GL222156   5.953   5.104   3.604 -0.0198  0.3040  0.1047
    1DIPC   C1A22157   5.637   4.895   3.911  0.0466  0.2315 -0.2331
    1DIPC   D2A22158   5.236   4.980   4.088 -0.1167  0.2854  0.0671
    1DIPC   D3A22159   5.221   5.275   4.350  0.1725  0.1137 -0.1577
    1DIPC   C4A22160   5.136   5.211   4.791  0.0489  0.0761 -0.0570
    1DIPC   C1B22161   6.032   5.014   4.082  0.1998  0.0429 -0.2463
    1DIPC   D2B22162   6.218   5.214   4.410 -0.1638  0.3014 -0.2252
    1DIPC   D3B22163   6.734   5.260   4.291 -0.0587 -0.1974 -0.1835
    1DIPC   C4B22164   7.087   5.482   4.396  0.0084  0.1428 -0.0199
    1DIPC   NC322165  15.529  17.736   1.773  0.0639 -0.0650  0.4612
    1DIPC   PO422166  15.749  17.808   2.112  0.0674 -0.0629  0.1780
    1DIPC   GL122167  15.688  17.774   2.518  0.0656  0.2656 -0.0311
    1DIPC   GL222168  15.920  17.728   2.606  0.0475 -0.0865  0.0048
    1DIPC   C1A22169  15.364  17.723   2.802 -0.0417 -0.1015  0.0080
    1DIPC   D2A22170  15.045  17.620   3.137 -0.1821 -0.2715  0.1323
    1DIPC   D3A22171  15.251  17.305   3.329  0.0652  0.2171 -0.1576
    1DIPC   C4A22172  15.576  17.346   3.563  0.0461 -0.0529  0.0374
    1DIPC   C1B22173  15.901  18.124   2.854 -0.1335 -0.2062 -0.0692
    1DIPC   D2B22174  15.931  17.938   3.336  0.1283 -0.2289 -0.0857
    1DIPC   D3B22175  16.388  17.941   3.446  0.0557 -0.0335 -0.1523
    1DIPC   C4B22176  16.598  18.387   3.420  0.1675 -0.2078  0.0770
    1DIPC   NC322177   0.771  23.325   1.914 -0.0216 -0.1388  0.0886
    1DIPC   PO422178   0.836  23.121   2.277 -0.2184 -0.0651 -0.0123
    1DIPC   GL122179   0.696  23.247   2.718 -0.1540  0.1134  0.0614
    1DIPC   GL222180   0.361  23.340   2.883  0.1092 -0.0560 -0.1196
    1DIPC   C1A22181   0.892  23.506   3.026 -0.0164  0.1723  0.5347
    1DIPC   D2A22182   1.117  23.641   3.325  0.3284 -0.2398  0.0089
    1DIPC   D3A22183   0.992  23.560   3.698 -0.1414  0.4378 -0.2842
    1DIPC   C4A22184   1.103  23.808   3.970  0.0459  0.1664 -0.3213
    1DIPC   C1B22185   0.476  23.468   3.349 -0.0353  0.1780 -0.2986
    1DIPC   D2B22186   0.547  23.712   3.774  0.1531 -0.1086 -0.0307
    1DIPC   D3B22187   0.312  23.555   4.089  0.0833  0.0411  0.0567
    1DIPC   C4B22188   0.097  23.401   4.413 -0.0307 -0.2077 -0.1990
    1DIPC   NC322189   5.073   7.267   3.305  0.5729  0.3421  0.0529
    1DIPC   PO422190   5.503   7.219   3.181 -0.3811 -0.2832  0.1852
    1DIPC   GL122191   5.497   7.423   3.649  0.0902 -0.1110  0.0228
    1DIPC   GL222192   5.158   7.484   3.766  0.0230  0.0095 -0.1860
    1DIPC   C1A22193   5.596   7.415   4.091 -0.0419 -0.0040 -0.2498
    1DIPC   D2A22194   5.664   7.548   4.498  0.2079 -0.1148 -0.2638
    1DIPC   D3A22195   6.043   7.466   4.646  0.1161 -0.0878 -0.2534
    1DIPC   C4A22196   6.346   7.108   4.729 -0.0294 -0.2794 -0.0028
    1DIPC   C1B22197   4.962   7.391   4.187 -0.1429  0.1302 -0.0149
    1DIPC   D2B22198   4.473   7.148   4.291  0.1339 -0.2221 -0.0462
    1DIPC   D3B22199   4.305   6.926   4.645 -0.0524 -0.3646  0.0768
    1DIPC   C4B22200   3.932   6.702   4.802  0.0986 -0.0327 -0.1346
    1DIPC   NC322201   1.818  15.013   2.756  0.5491 -0.0418  0.0810
    1DIPC   PO422202   1.370  15.089   2.581  0.0272  0.2912  0.0742
    1DIPC   GL122203   1.301  15.143   3.099  0.3354 -0.1725 -0.0293
    1DIPC   GL222204   1.361  14.929   3.320  0.2878  0.1912 -0.0734
    1DIPC   C1A22205   1.244  15.414   3.374  0.0210 -0.1414  0.0913
    1DIPC   D2A22206   0.913  15.488   3.753 -0.2286 -0.0085  0.3577
    1DIPC   D3A22207   1.006  15.883   4.051  0.0622  0.1334  0.2275
    1DIPC   C4A22208   0.777  15.951   4.481  0.0633 -0.0504  0.1594
    1DIPC   C1B22209   1.413  15.139   3.718 -0.0692  0.1474 -0.0089
    1DIPC   D2B22210   1.452  15.112   4.155 -0.0293 -0.1633 -0.3241
    1DIPC   D3B22211   1.686  15.143   4.500 -0.0528  0.3629 -0.0607
    1DIPC   C4B22212   2.029  15.291   4.444 -0.2237 -0.0596  0.0972
    1DIPC   NC322213   5.504   1.016   2.444 -0.1699  0.1114 -0.1252
    1DIPC   PO422214   5.778   1.387   2.619  0.0658  0.1546 -0.0345
    1DIPC   GL122215   5.461   1.278   2.929 -0.0641  0.0106 -0.1992
    1DIPC   GL222216   5.357   1.538   3.019 -0.0215 -0.3300  0.0810
    1DIPC   C1A22217   5.088   1.051   3.332 -0.2317  0.2059  0.0079
    1DIPC   D2A22218   5.040   0.935   3.728  0.0545 -0.2812 -0.0713
    1DIPC   D3A22219   5.424   0.657   3.693  0.1541 -0.2872 -0.1916
    1DIPC   C4A22220   5.689   0.521   4.052 -0.0362 -0.1385  0.0211
    1DIPC   C1B22221   5.173   1.527   3.428  0.1854 -0.1204  0.2306
    1DIPC   D2B22222   5.071   1.405   3.850 -0.0091  0.0839 -0.1222
    1DIPC   D3B22223   5.162   1.754   4.072 -0.0464  0.0904  0.1323
    1DIPC   C4B22224   4.816   1.987   4.082  0.1360  0.2138 -0.3454
    1DIPC   NC322225  12.469  25.244   2.187 -0.1214  0.2419  0.1775
    1DIPC   PO422226  12.136  25.529   2.353 -0.3375  0.0587 -0.0756
    1DIPC   GL122227  12.275  25.783   2.778 -0.2927  0.0721 -0.0586
    1DIPC   GL222228  12.273  25.628   3.061  0.0315  0.0019  0.0114
    1DIPC   C1A22229  12.687  25.842   3.070 -0.3609  0.1969  0.0080
    1DIPC   D2A22230  12.917  25.628   3.348  0.0091  0.1867 -0.3322
    1DIPC   D3A22231  12.693  25.712   3.668 -0.1104 -0.0342 -0.0831
    1DIPC   C4A22232  12.317  25.433   3.785  0.0606  0.2734 -0.1497
    1DIPC   C1B22233  12.016  25.641   3.418 -0.0843  0.1570  0.2221
    1DIPC   D2B22234  11.637  25.534   3.645  0.1753  0.0329 -0.0714
    1DIPC   D3B22235  11.189  25.299   3.430 -0.0361  0.2177 -0.1133
    1DIPC   C4B22236  10.976  25.011   3.680 -0.1449 -0.2072  0.1035
    1DIPC   NC322237  12.591   0.916   3.744  0.0739  0.1045 -0.1592
    1DIPC   PO422238  12.180   1.124   3.555 -0.0826  0.1748  0.0670
    1DIPC   GL122239  12.228   1.180   3.954 -0.0800  0.0527  0.1309
    1DIPC   GL222240  12.161   1.517   3.959 -0.1232 -0.0159 -0.0397
    1DIPC   C1A22241  12.114   1.391   4.390 -0.3433  0.1118 -0.0128
    1DIPC   D2A22242  11.811   1.410   4.627  0.2571  0.1790 -0.1414
    1DIPC   D3A22243  11.819   1.180   5.043  0.2639  0.0608  0.1340
    1DIPC   C4A22244  12.161   1.262   5.271  0.2480  0.0893  0.5448
    1DIPC   C1B22245  12.458   1.715   4.241 -0.1335 -0.0865 -0.0423
    1DIPC   D2B22246  12.564   2.173   4.329 -0.2074 -0.0727 -0.0414
    1DIPC   D3B22247  12.158   2.322   4.504  0.0629 -0.1645 -0.0998
    1DIPC   C4B22248  11.925   2.542   4.215 -0.3918  0.2677  0.0904
    1DIPC   NC322249  26.395  29.235   3.033 -0.1959  0.0661 -0.3129
    1DIPC   PO422250  26.741  29.516   3.108 -0.1517  0.1414  0.2207
    1DIPC   GL122251  26.776  29.198   3.426  0.1938 -0.2546 -0.0748
    1DIPC   GL222252  26.957  28.849   3.360 -0.0453  0.0608 -0.1444
    1DIPC   C1A22253  26.736  28.873   3.801 -0.0480 -0.3321  0.0328
    1DIPC   D2A22254  26.701  28.499   4.041  0.2245 -0.0356 -0.0301
    1DIPC   D3A22255  27.015  28.135   3.897 -0.1658 -0.1357 -0.1312
    1DIPC   C4A22256  27.218  27.802   4.203 -0.1659 -0.1806  0.3054
    1DIPC   C1B22257  27.121  28.372   3.470  0.2362  0.0602 -0.2214
    1DIPC   D2B22258  27.332  27.948   3.437  0.0444 -0.2581 -0.1855
    1DIPC   D3B22259  27.624  27.878   3.763  0.3596  0.1549  0.0875
    1DIPC   C4B22260  27.966  28.132   3.982  0.1656 -0.1299  0.0307
    1DIPC   NC322261  15.209   2.474   3.886 -0.2220  0.0728 -0.2278
    1DIPC   PO422262  15.409   2.357   4.211  0.0530 -0.1238  0.2506
    1DIPC   GL122263  15.207   2.176   4.567  0.1438  0.2147  0.2422
    1DIPC   GL222264  14.845   2.139   4.600  0.2424  0.2433  0.0219
    1DIPC   C1A22265  15.274   2.013   4.988  0.2647 -0.1135  0.2064
    1DIPC   D2A22266  15.552   1.905   5.294 -0.1172 -0.1345  0.0527
    1DIPC   D3A22267  16.034   2.001   5.142 -0.1538 -0.2524  0.0148
    1DIPC   C4A22268  16.362   1.765   5.154 -0.1997 -0.2931 -0.2693
    1DIPC   C1B22269  14.810   2.263   5.124 -0.1516 -0.0013  0.1409
    1DIPC   D2B22270  14.922   1.921   5.494 -0.0416 -0.1847 -0.1114
    1DIPC   D3B22271  14.609   1.725   5.785  0.2649 -0.1586  0.0563
    1DIPC   C4B22272  14.162   1.909   5.710 -0.0896  0.1984 -0.1843
    1DIPC   NC322273  12.283  21.481   2.034  0.1886  0.0324 -0.2992
    1DIPC   PO422274  11.904  21.570   2.016 -0.0187  0.0127 -0.0463
    1DIPC   GL122275  11.804  21.167   2.231  0.0780  0.0221 -0.0114
    1DIPC   GL222276  11.760  21.308   2.528  0.2798 -0.0590 -0.1185
    1DIPC   C1A22277  12.196  20.916   2.318 -0.0169  0.0449 -0.0636
    1DIPC   D2A22278  12.365  20.875   2.733 -0.0288 -0.0014 -0.0262
    1DIPC   D3A22279  11.887  20.980   2.881  0.0038 -0.1253 -0.3179
    1DIPC   C4A22280  11.789  20.707   3.208 -0.1382  0.2387 -0.1246
    1DIPC   C1B22281  11.847  21.453   2.900  0.0646  0.0472 -0.0752
    1DIPC   D2B22282  12.039  21.199   3.317 -0.0126 -0.4903 -0.0090
    1DIPC   D3B22283  12.064  21.449   3.724 -0.0606  0.1259  0.0303
    1DIPC   C4B22284  11.768  21.237   3.913 -0.1508 -0.0295 -0.1517
    1DIPC   NC322285   2.775  20.661   2.715 -0.0105  0.2108 -0.0564
    1DIPC   PO422286   2.810  20.184   2.875 -0.1861  0.1052  0.0898
    1DIPC   GL122287   2.761  20.447   3.177 -0.0085  0.2231 -0.1161
    1DIPC   GL222288   2.770  20.910   3.132  0.2288  0.0299 -0.0227
    1DIPC   C1A22289   2.480  20.539   3.454  0.0428 -0.3679  0.1143
    1DIPC   D2A22290   2.379  20.492   3.939 -0.2886  0.2136  0.0379
    1DIPC   D3A22291   2.688  20.672   4.243  0.1431  0.0385  0.1325
    1DIPC   C4A22292   2.726  20.695   4.596 -0.0974 -0.1264 -0.0709
    1DIPC   C1B22293   2.550  21.202   3.312 -0.0719  0.1297 -0.0466
    1DIPC   D2B22294   2.239  21.339   3.645  0.1536 -0.0418  0.4746
    1DIPC   D3B22295   2.563  21.396   3.820 -0.2190 -0.2337  0.1120
    1DIPC   C4B22296   2.940  21.169   4.108  0.0060  0.1531 -0.1065
    1DIPC   NC322297   5.566  25.238   1.825  0.2368 -0.5025 -0.3343
    1DIPC   PO422298   5.988  25.021   1.957 -0.1716 -0.1769 -0.0111
    1DIPC   GL122299   5.584  25.151   2.346  0.0340 -0.2153  0.3588
    1DIPC   GL222300   5.636  25.445   2.449  0.1048 -0.3186 -0.1718
    1DIPC   C1A22301   5.360  25.113   2.738 -0.0157 -0.1547  0.0702
    1DIPC   D2A22302   5.379  24.848   3.170 -0.1376  0.0051 -0.3101
    1DIPC   D3A22303   5.582  24.885   3.549 -0.2157 -0.2898 -0.3735
    1DIPC   C4A22304   5.353  24.824   3.795  0.0816 -0.1440 -0.1744
    1DIPC   C1B22305   5.195  25.549   2.538  0.0394 -0.0863  0.0823
    1DIPC   D2B22306   4.829  25.234   2.462 -0.0229  0.1744 -0.2649
    1DIPC   D3B22307   4.412  25.305   2.462  0.0828  0.0697  0.0518
    1DIPC   C4B22308   4.209  25.570   2.648  0.0536  0.0364  0.0115
    1DIPC   NC322309  17.198  15.249   2.752 -0.0153 -0.3315 -0.0446
    1DIPC   PO422310  16.979  14.986   2.429 -0.0279 -0.1342 -0.2948
    1DIPC   GL122311  16.751  14.975   2.930 -0.0995  0.4382 -0.0313
    1DIPC   GL222312  16.443  14.962   3.020  0.0613  0.2831  0.1802
    1DIPC   C1A22313  16.752  15.139   3.398  0.3562 -0.1169  0.0252
    1DIPC   D2A22314  16.787  14.999   3.832  0.4439  0.1687  0.0020
    1DIPC   D3A22315  16.637  14.838   4.250 -0.4603 -0.1168  0.4370
    1DIPC   C4A22316  16.265  14.996   4.507  0.0252  0.1604 -0.0214
    1DIPC   C1B22317  16.307  14.995   3.478 -0.0166 -0.1655 -0.1919
    1DIPC   D2B22318  16.323  14.931   3.886 -0.1328 -0.2860  0.0086
    1DIPC   D3B22319  16.136  15.446   3.981 -0.2499 -0.0107  0.0493
    1DIPC   C4B22320  15.727  15.381   3.965  0.2199  0.2065 -0.3518
    1DIPC   NC322321  24.085  26.466   2.394  0.3592 -0.0380 -0.2605
    1DIPC   PO422322  24.210  26.547   2.772  0.1970  0.3732 -0.0950
    1DIPC   GL122323  24.165  26.375   3.147  0.0699  0.1197 -0.0165
    1DIPC   GL222324  24.324  26.075   3.047 -0.0069 -0.2125 -0.0886
    1DIPC   C1A22325  23.932  26.449   3.629  0.0228  0.4357 -0.0791
    1DIPC   D2A22326  23.825  26.376   4.067 -0.0279 -0.0132 -0.1810
    1DIPC   D3A22327  24.214  26.471   4.271 -0.4154  0.3330 -0.1549
    1DIPC   C4A22328  24.312  26.212   4.513  0.0711 -0.1441 -0.3376
    1DIPC   C1B22329  24.278  26.012   3.479  0.1689 -0.1350 -0.2266
    1DIPC   D2B22330  24.285  26.158   3.926 -0.1735 -0.1169 -0.0719
    1DIPC   D3B22331  24.570  25.905   4.099 -0.0773  0.0516  0.0345
    1DIPC   C4B22332  24.995  25.831   3.939  0.2327 -0.0148 -0.2448
    1DIPC   NC322333  15.021  23.096   1.078  0.1739  0.0104 -0.0798
    1DIPC   PO422334  15.115  22.966   1.491 -0.0875  0.3162 -0.1274
    1DIPC   GL122335  14.977  22.701   1.904 -0.4169 -0.1600  0.0524
    1DIPC   GL222336  14.917  22.329   1.877  0.1516 -0.1139 -0.1068
    1DIPC   C1A22337  15.020  22.569   2.363 -0.0961 -0.0207 -0.0831
    1DIPC   D2A22338  14.696  22.249   2.721  0.0891  0.3531  0.1091
    1DIPC   D3A22339  14.798  22.379   3.088  0.1527 -0.0573 -0.0396
    1DIPC   C4A22340  14.513  22.611   3.300  0.4348 -0.1160 -0.0500
    1DIPC   C1B22341  14.540  22.498   2.115  0.3911  0.0812 -0.1381
    1DIPC   D2B22342  14.427  22.579   2.501 -0.0085 -0.2479  0.0361
    1DIPC   D3B22343  14.797  22.811   2.753  0.0000 -0.0138 -0.1843
    1DIPC   C4B22344  15.164  23.101   2.578 -0.1268 -0.0554  0.2404
    1DIPC   NC322345   8.774   0.098   3.365  0.2950  0.3329 -0.0296
    1DIPC   PO422346   8.878  29.659   3.053  0.1652  0.0695  0.0785
    1DIPC   GL122347   9.115  29.514   3.434  0.1117  0.1808  0.1160
    1DIPC   GL222348   9.250  29.794   3.543  0.1053 -0.1432 -0.3506
    1DIPC   C1A22349   8.972  29.202   3.802 -0.4363 -0.0714  0.0129
    1DIPC   D2A22350   8.954  28.967   4.153 -0.0874 -0.0821 -0.3831
    1DIPC   D3A22351   8.542  28.799   4.238 -0.0419 -0.0494  0.0205
    1DIPC   C4A22352   8.339  28.653   4.538 -0.0104  0.2190  0.0137
    1DIPC   C1B22353   9.282  29.654   3.968 -0.0352 -0.1531 -0.2261
    1DIPC   D2B22354   9.428  29.610   4.408 -0.1193 -0.2199  0.0837
    1DIPC   D3B22355   9.463   0.064   4.691  0.0543  0.1854  0.1751
    1DIPC   C4B22356   9.122   0.379   4.628 -0.1105  0.1090  0.1954
    1DIPC   NC322357  26.600  21.981   3.154 -0.0332 -0.1876  0.0245
    1DIPC   PO422358  26.699  21.523   3.002 -0.1733  0.1859 -0.1762
    1DIPC   GL122359  26.635  21.139   3.172  0.1843 -0.2066 -0.4724
    1DIPC   GL222360  26.389  21.274   3.392  0.2242 -0.0984  0.0501
    1DIPC   C1A22361  26.793  20.832   3.486 -0.1329  0.1566  0.2318
    1DIPC   D2A22362  26.949  20.594   3.869 -0.0720  0.2378 -0.3317
    1DIPC   D3A22363  26.752  20.471   4.174  0.0591 -0.1677  0.0740
    1DIPC   C4A22364  26.914  20.289   4.527 -0.2636  0.1810  0.0684
    1DIPC   C1B22365  26.331  21.441   3.832  0.1961  0.0827 -0.0939
    1DIPC   D2B22366  26.183  21.257   4.150 -0.1685 -0.0073 -0.2795
    1DIPC   D3B22367  26.393  21.522   4.507  0.2492 -0.1402 -0.1008
    1DIPC   C4B22368  26.719  21.458   4.806 -0.0707  0.0498  0.1679
    1DIPC   NC322369  20.934  19.596   1.869 -0.0706 -0.2145  0.0678
    1DIPC   PO422370  20.460  19.770   1.929  0.0272 -0.1235 -0.1339
    1DIPC   GL122371  20.205  19.800   2.337 -0.0144 -0.2269  0.2261
    1DIPC   GL222372  19.896  19.739   2.408  0.3302  0.0801  0.1803
    1DIPC   C1A22373  20.311  19.653   2.734 -0.0672 -0.0908  0.2587
    1DIPC   D2A22374  20.428  19.461   3.134 -0.1477  0.2730 -0.0054
    1DIPC   D3A22375  20.383  19.940   3.406  0.3161 -0.0680  0.0916
    1DIPC   C4A22376  20.073  19.980   3.764 -0.2488  0.3600 -0.0450
    1DIPC   C1B22377  19.592  19.383   2.565  0.0169 -0.4102 -0.2830
    1DIPC   D2B22378  19.484  18.931   2.406  0.1345  0.0094 -0.3709
    1DIPC   D3B22379  19.875  18.949   2.357  0.0405 -0.1593  0.1305
    1DIPC   C4B22380  20.091  19.225   2.553 -0.0128 -0.1480  0.0787
    1DIPC   NC322381   7.841   4.782   3.432 -0.1598  0.0694  0.2286
    1DIPC   PO422382   7.563   4.412   3.233  0.1521  0.1514  0.1790
    1DIPC   GL122383   7.722   4.166   3.654  0.0628  0.2633 -0.0150
    1DIPC   GL222384   7.348   4.235   3.828 -0.1033  0.0750  0.2680
    1DIPC   C1A22385   7.789   4.192   4.066 -0.0435 -0.1329  0.0539
    1DIPC   D2A22386   8.067   4.413   4.336 -0.0546 -0.0844 -0.0675
    1DIPC   D3A22387   7.904   3.988   4.535 -0.0955  0.0812 -0.1392
    1DIPC   C4A22388   8.079   3.607   4.849 -0.1888  0.3259  0.3085
    1DIPC   C1B22389   7.061   3.900   4.063 -0.3793 -0.2410 -0.1388
    1DIPC   D2B22390   6.956   3.618   4.409  0.0134  0.2774 -0.1109
    1DIPC   D3B22391   7.079   3.898   4.716  0.3300 -0.0428  0.3355
    1DIPC   C4B22392   7.183   3.636   5.134 -0.0048 -0.0722 -0.0894
    1DIPC   NC322393  21.878  23.214   2.353  0.2406  0.1306  0.3706
    1DIPC   PO422394  21.738  23.308   2.851  0.2396  0.0761 -0.0153
    1DIPC   GL122395  21.796  23.464   3.285 -0.1940 -0.3629 -0.0242
    1DIPC   GL222396  21.822  23.827   3.420 -0.0232  0.3560 -0.0440
    1DIPC   C1A22397  21.711  23.376   3.715 -0.1313  0.0854  0.0503
    1DIPC   D2A22398  21.843  23.436   4.119 -0.0088  0.0815  0.1113
    1DIPC   D3A22399  21.659  23.079   4.161 -0.1163 -0.2644  0.1585
    1DIPC   C4A22400  21.669  22.855   3.757 -0.0544  0.1056 -0.2948
    1DIPC   C1B22401  21.640  24.144   3.663 -0.1860 -0.1491 -0.0804
    1DIPC   D2B22402  21.691  24.333   4.092  0.1475 -0.4755  0.1156
    1DIPC   D3B22403  21.743  23.943   4.192 -0.1130 -0.0276  0.1411
    1DIPC   C4B22404  21.966  23.745   4.589 -0.0328  0.1563 -0.0364
    1DIPC   NC322405  13.280   1.982   3.329 -0.0289 -0.2706  0.5402
    1DIPC   PO422406  13.432   2.228   3.786 -0.2186 -0.1843  0.0847
    1DIPC   GL122407  13.410   2.272   4.239  0.4919 -0.1226  0.0082
    1DIPC   GL222408  13.448   2.507   4.547 -0.2542 -0.1970  0.0251
    1DIPC   C1A22409  13.034   2.346   4.391  0.2398 -0.2036 -0.0414
    1DIPC   D2A22410  12.875   2.212   4.813  0.0801 -0.3003  0.0279
    1DIPC   D3A22411  12.658   1.903   4.803 -0.1586  0.1752 -0.0988
    1DIPC   C4A22412  12.544   1.460   4.802 -0.0352  0.0208  0.1025
    1DIPC   C1B22413  13.278   2.505   4.952  0.1826 -0.0765 -0.2188
    1DIPC   D2B22414  13.009   2.811   5.132 -0.2704 -0.1297  0.0283
    1DIPC   D3B22415  12.734   2.739   5.497 -0.3471 -0.1402 -0.2773
    1DIPC   C4B22416  12.465   3.118   5.638 -0.1100  0.0493 -0.0651
    1DIPC   NC322417   4.337  23.635   2.401 -0.1357  0.3377  0.3717
    1DIPC   PO422418   4.625  23.349   2.324  0.0203  0.2017  0.1401
    1DIPC   GL122419   4.421  23.253   2.775  0.1441 -0.3963 -0.0901
    1DIPC   GL222420   4.087  23.232   2.736  0.2450  0.1729  0.2388
    1DIPC   C1A22421   4.562  23.436   3.101 -0.1416  0.2974 -0.1119
    1DIPC   D2A22422   4.375  23.554   3.461  0.0201  0.1099 -0.0671
    1DIPC   D3A22423   4.031  23.276   3.374 -0.0092  0.0739 -0.0710
    1DIPC   C4A22424   3.924  22.894   3.658 -0.0584 -0.1481  0.0589
    1DIPC   C1B22425   3.813  23.027   3.004 -0.1634 -0.0751  0.4006
    1DIPC   D2B22426   3.509  22.821   3.313  0.2206  0.0065 -0.0262
    1DIPC   D3B22427   3.179  22.560   3.617 -0.2222  0.0576  0.0536
    1DIPC   C4B22428   2.964  22.264   3.670 -0.0564  0.2055 -0.0702
    1DIPC   NC322429  18.762   1.733   3.575  0.1529  0.1561  0.0316
    1DIPC   PO422430  18.970   1.567   3.972  0.3861  0.1442 -0.2617
    1DIPC   GL122431  19.099   1.457   4.425 -0.0404 -0.1307  0.0148
    1DIPC   GL222432  19.440   1.540   4.370 -0.0857  0.3944  0.0470
    1DIPC   C1A22433  19.240   1.347   4.793 -0.3343  0.1456 -0.2354
    1DIPC   D2A22434  19.345   1.080   5.150  0.0824 -0.0918  0.1108
    1DIPC   D3A22435  19.210   0.986   5.596 -0.1171 -0.0759 -0.0527
    1DIPC   C4A22436  19.614   0.850   5.878  0.0249 -0.0544  0.2200
    1DIPC   C1B22437  19.694   1.463   4.586  0.0009 -0.2871 -0.3584
    1DIPC   D2B22438  19.769   1.247   4.964  0.2092 -0.3661 -0.2500
    1DIPC   D3B22439  19.851   0.812   5.163  0.0438  0.1658  0.3715
    1DIPC   C4B22440  20.148   0.887   5.496 -0.1983 -0.0359  0.2804
    1DIPC   NC322441  15.168  24.981   2.114  0.0468  0.3234 -0.0397
    1DIPC   PO422442  14.931  25.331   2.249  0.0402  0.0385 -0.0995
    1DIPC   GL122443  14.970  25.206   2.630  0.2368 -0.2586 -0.2299
    1DIPC   GL222444  15.218  25.077   2.622  0.1851  0.1142  0.1206
    1DIPC   C1A22445  14.797  25.181   3.026 -0.2015  0.2767  0.2106
    1DIPC   D2A22446  14.861  25.361   3.398 -0.1545 -0.1715  0.0195
    1DIPC   D3A22447  14.972  24.903   3.607  0.0301  0.1407  0.2705
    1DIPC   C4A22448  15.114  24.504   3.409 -0.0043  0.0705  0.2381
    1DIPC   C1B22449  15.100  24.729   2.913  0.2142  0.0014 -0.2389
    1DIPC   D2B22450  14.789  24.248   3.051 -0.1726 -0.0538 -0.0007
    1DIPC   D3B22451  14.954  23.822   3.202  0.0000  0.1904  0.3447
    1DIPC   C4B22452  15.415  23.839   3.140  0.0378 -0.2063  0.0498
    1DIPC   NC322453  13.793   1.270   4.069  0.2225  0.1884 -0.1177
    1DIPC   PO422454  13.821   1.670   4.114  0.0976  0.0043 -0.1196
    1DIPC   GL122455  13.682   1.853   4.409 -0.2060  0.0481  0.0196
    1DIPC   GL222456  13.303   1.816   4.383 -0.0194  0.1385  0.0111
    1DIPC   C1A22457  13.389   1.993   4.827 -0.0102 -0.1269  0.2367
    1DIPC   D2A22458  13.055   1.783   5.081  0.0209  0.0755 -0.3710
    1DIPC   D3A22459  13.254   1.439   4.825  0.2523 -0.1966  0.1346
    1DIPC   C4A22460  12.933   1.146   4.768 -0.3157 -0.2718 -0.2412
    1DIPC   C1B22461  12.920   1.555   4.343  0.0587 -0.1058  0.0921
    1DIPC   D2B22462  12.876   1.029   4.310 -0.3829 -0.0120  0.5214
    1DIPC   D3B22463  12.563   1.112   4.395 -0.0599  0.1105  0.3398
    1DIPC   C4B22464  12.249   1.015   4.839 -0.1609  0.1771  0.2454
    1DIPC   NC322465   2.831   9.997   2.813 -0.0112  0.0805  0.2920
    1DIPC   PO422466   3.251   9.906   2.798  0.2047  0.4037  0.0322
    1DIPC   GL122467   3.069   9.935   3.238 -0.0955 -0.2026 -0.0438
    1DIPC   GL222468   2.672   9.954   3.282  0.2163 -0.0160  0.4009
    1DIPC   C1A22469   3.360  10.240   3.501 -0.0339  0.4041 -0.0655
    1DIPC   D2A22470   3.625  10.546   3.676 -0.1302 -0.0084  0.4503
    1DIPC   D3A22471   3.945  10.644   3.394 -0.0443  0.2485 -0.0763
    1DIPC   C4A22472   4.097  11.059   3.505  0.2136  0.0641 -0.1605
    1DIPC   C1B22473   2.301  10.142   3.519  0.0238  0.0422 -0.0159
    1DIPC   D2B22474   2.073  10.193   3.922 -0.0497 -0.0161 -0.2144
    1DIPC   D3B22475   2.086   9.948   4.343 -0.1283  0.3674  0.1038
    1DIPC   C4B22476   1.684   9.728   4.488 -0.0338 -0.3128  0.1947
    1DIPC   NC322477   7.853   7.259   2.823  0.0376  0.1029 -0.2638
    1DIPC   PO422478   7.557   7.244   2.567  0.1216  0.0303  0.1812
    1DIPC   GL122479   7.466   7.283   3.166  0.0384 -0.1455  0.1132
    1DIPC   GL222480   7.710   7.437   3.304 -0.0116  0.2855  0.0981
    1DIPC   C1A22481   7.292   6.899   3.374  0.3327  0.2079 -0.0395
    1DIPC   D2A22482   7.139   6.623   3.787  0.0795  0.0317 -0.0543
    1DIPC   D3A22483   7.018   6.397   4.193  0.1592  0.0288 -0.0306
    1DIPC   C4A22484   7.186   6.524   4.461  0.0679 -0.0765  0.2056
    1DIPC   C1B22485   7.958   7.307   3.605  0.1382 -0.2056  0.1936
    1DIPC   D2B22486   8.485   7.165   3.588  0.2638 -0.0798 -0.1965
    1DIPC   D3B22487   8.681   6.998   3.933  0.1032 -0.1537  0.1063
    1DIPC   C4B22488   8.405   6.791   4.349 -0.1230 -0.2170 -0.3921
    1DIPC   NC322489  19.224   0.345   3.689  0.1866  0.1055 -0.0426
    1DIPC   PO422490  19.448  29.828   3.677  0.2784  0.3221  0.2835
    1DIPC   GL122491  19.432   0.161   4.065 -0.0030  0.0645 -0.0978
    1DIPC   GL222492  19.102  29.849   4.049  0.2752  0.1153  0.0470
    1DIPC   C1A22493  19.618   0.302   4.391  0.2734  0.1144 -0.2125
    1DIPC   D2A22494  19.727   0.488   4.798  0.1124 -0.1769 -0.2450
    1DIPC   D3A22495  19.602   0.927   4.681 -0.1655 -0.1910 -0.1735
    1DIPC   C4A22496  19.687   0.985   4.318 -0.1089  0.0916  0.1950
    1DIPC   C1B22497  19.353  29.697   4.436 -0.2778  0.0088  0.3747
    1DIPC   D2B22498  19.676  29.755   4.723 -0.1333  0.0059  0.1797
    1DIPC   D3B22499  19.997  29.394   4.573  0.0680 -0.1604  0.3426
    1DIPC   C4B22500  20.085  28.976   4.523  0.0652  0.0962 -0.0881
    1DIPC   NC322501  27.107  29.191   2.991  0.0295 -0.0862  0.0679
    1DIPC   PO422502  26.772  28.892   2.870 -0.0054 -0.2695 -0.4058
    1DIPC   GL122503  26.547  28.688   3.129 -0.0965 -0.0430  0.0443
    1DIPC   GL222504  26.195  28.638   3.306 -0.0622 -0.1916 -0.1013
    1DIPC   C1A22505  26.632  28.522   3.533 -0.1177  0.0332  0.1792
    1DIPC   D2A22506  26.538  28.202   3.709  0.0751 -0.4591 -0.1182
    1DIPC   D3A22507  26.821  27.903   3.481 -0.2388 -0.1602  0.2076
    1DIPC   C4A22508  27.068  27.644   3.792 -0.1073 -0.1494  0.4027
    1DIPC   C1B22509  25.947  28.271   3.571  0.1060 -0.1356  0.0842
    1DIPC   D2B22510  26.102  28.018   3.913 -0.1198 -0.1572  0.0488
    1DIPC   D3B22511  26.240  28.292   4.174  0.1588 -0.0022  0.2222
    1DIPC   C4B22512  26.014  28.599   4.546 -0.1820  0.2372 -0.0456
    1DIPC   NC322513   4.618   5.453   2.989 -0.0529  0.3015  0.2153
    1DIPC   PO422514   4.413   5.922   3.122 -0.1028  0.0123 -0.0465
    1DIPC   GL122515   4.240   5.490   3.320 -0.0143  0.1386  0.2362
    1DIPC   GL222516   3.890   5.527   3.452 -0.2776  0.2133 -0.0152
    1DIPC   C1A22517   4.401   5.113   3.611 -0.2193  0.2287  0.2175
    1DIPC   D2A22518   4.583   4.714   3.768 -0.1895  0.0862 -0.1591
    1DIPC   D3A22519   4.817   4.677   4.218  0.0117  0.0782  0.1347
    1DIPC   C4A22520   4.810   4.821   4.673  0.2216  0.1310 -0.1053
    1DIPC   C1B22521   4.186   5.780   3.744  0.1441  0.0331  0.0901
    1DIPC   D2B22522   4.568   6.044   3.762 -0.0669 -0.0346  0.3375
    1DIPC   D3B22523   4.231   6.201   4.017  0.1058 -0.1776  0.1276
    1DIPC   C4B22524   4.154   5.973   4.405  0.1147  0.2027 -0.3258
    1DIPC   NC322525  10.812   7.132   2.659  0.0532 -0.0067  0.3254
    1DIPC   PO422526  10.465   7.124   3.088  0.0215 -0.2012 -0.0828
    1DIPC   GL122527  10.281   6.955   3.545  0.1404  0.1537 -0.2793
    1DIPC   GL222528   9.946   7.143   3.627 -0.0754  0.0436 -0.0188
    1DIPC   C1A22529  10.073   6.707   3.894  0.2216  0.1444  0.0097
    1DIPC   D2A22530   9.635   6.735   4.016  0.1637  0.0816 -0.4462
    1DIPC   D3A22531   9.588   6.468   4.358 -0.1768 -0.1913 -0.1624
    1DIPC   C4A22532   9.651   6.320   4.646 -0.1389  0.0066 -0.2128
    1DIPC   C1B22533   9.797   7.189   4.037 -0.2871  0.1426  0.6139
    1DIPC   D2B22534   9.819   7.276   4.422  0.0132 -0.1289 -0.1743
    1DIPC   D3B22535   9.749   7.730   4.427 -0.2202  0.0375 -0.1300
    1DIPC   C4B22536   9.736   7.930   4.763  0.1737  0.1881 -0.0516
    1DIPC   NC322537  29.460  29.118   2.556 -0.0540  0.1540  0.2263
    1DIPC   PO422538  29.680  29.560   2.556  0.2636  0.2130 -0.0946
    1DIPC   GL122539  29.784  29.623   3.053  0.1176 -0.1458  0.0059
    1DIPC   GL222540  29.855   0.111   3.147  0.0042  0.0546 -0.2230
    1DIPC   C1A22541  29.823  29.519   3.491 -0.2391  0.0605 -0.2513
    1DIPC   D2A22542   0.063  29.216   3.910  0.1618 -0.0628  0.3250
    1DIPC   D3A22543  29.756  29.234   4.263  0.0161  0.1173  0.1312
    1DIPC   C4A22544  29.614  28.860   4.345  0.1788  0.2981 -0.3661
    1DIPC   C1B22545   0.238   0.259   3.566  0.1120 -0.4367  0.2132
    1DIPC   D2B22546   0.310   0.350   3.945 -0.2442  0.0451 -0.2195
    1DIPC   D3B22547   0.698   0.429   3.948  0.2313 -0.0666 -0.2416
    1DIPC   C4B22548   0.838   0.047   4.123  0.0773 -0.0435  0.0987
    1DIPC   NC322549  17.393  16.971   1.716 -0.1591  0.0578  0.2007
    1DIPC   PO422550  17.661  16.881   2.055 -0.2109 -0.1033 -0.1861
    1DIPC   GL122551  17.566  16.638   2.507  0.2356 -0.1445 -0.1175
    1DIPC   GL222552  17.211  16.557   2.505  0.2060 -0.0502  0.0103
    1DIPC   C1A22553  17.470  16.676   2.924  0.1544  0.3467 -0.2720
    1DIPC   D2A22554  17.498  16.666   3.336 -0.0166 -0.4318 -0.3490
    1DIPC   D3A22555  17.739  17.072   3.372 -0.1761 -0.3039  0.1785
    1DIPC   C4A22556  17.982  16.910   3.026 -0.0063  0.1077  0.0206
    1DIPC   C1B22557  17.051  16.932   2.711  0.0296 -0.4481  0.1135
    1DIPC   D2B22558  17.182  17.431   2.901 -0.1166 -0.1813  0.0379
    1DIPC   D3B22559  17.141  17.520   3.331 -0.1447 -0.3727  0.0878
    1DIPC   C4B22560  16.791  17.213   3.624 -0.0580 -0.2250 -0.1476
    1DIPC   NC322561  15.788   3.185   3.792 -0.0106 -0.0122 -0.0883
    1DIPC   PO422562  15.549   3.260   4.206 -0.2708  0.2763  0.1233
    1DIPC   GL122563  15.788   3.277   4.542  0.0544  0.0829 -0.1851
    1DIPC   GL222564  15.760   3.352   4.946  0.1236  0.1230 -0.1041
    1DIPC   C1A22565  16.031   3.688   4.718 -0.1870 -0.0916 -0.0899
    1DIPC   D2A22566  16.123   4.173   4.599  0.1191 -0.2078 -0.1098
    1DIPC   D3A22567  16.009   4.594   4.710 -0.0450 -0.1521  0.1390
    1DIPC   C4A22568  16.169   4.513   5.065 -0.1074 -0.1583  0.0913
    1DIPC   C1B22569  15.280   3.399   5.083  0.0418 -0.1188 -0.0830
    1DIPC   D2B22570  15.070   3.466   5.457  0.4155 -0.0689 -0.2013
    1DIPC   D3B22571  15.361   3.713   5.740  0.1307  0.2304  0.0094
    1DIPC   C4B22572  15.770   3.896   5.639  0.1207 -0.3001 -0.0132
    1DIPC   NC322573   8.159  20.678   2.531 -0.1346  0.1742 -0.1976
    1DIPC   PO422574   7.809  20.350   2.434  0.0949  0.0356 -0.1224
    1DIPC   GL122575   7.774  20.545   2.822 -0.3012 -0.0117  0.3182
    1DIPC   GL222576   7.423  20.658   2.820 -0.2742  0.2374  0.3530
    1DIPC   C1A22577   8.049  20.630   3.176 -0.0868  0.1018 -0.0167
    1DIPC   D2A22578   8.034  20.965   3.492  0.1516 -0.3680 -0.0212
    1DIPC   D3A22579   8.032  20.718   3.902  0.0495 -0.0194  0.0259
    1DIPC   C4A22580   7.844  20.930   4.174  0.3256 -0.0517 -0.1400
    1DIPC   C1B22581   7.565  20.760   3.218 -0.0883  0.0786  0.2111
    1DIPC   D2B22582   7.599  21.226   3.399  0.0959 -0.0184 -0.1099
    1DIPC   D3B22583   7.639  21.135   3.752  0.0509  0.0830  0.1688
    1DIPC   C4B22584   7.532  20.673   3.840 -0.3179  0.1202  0.0237
    1DIPC   NC322585  10.331  12.666   2.519  0.0284  0.3935 -0.2008
    1DIPC   PO422586  10.122  13.088   2.753 -0.0786  0.0110 -0.0413
    1DIPC   GL122587   9.968  13.118   3.212 -0.1155  0.0176 -0.1540
    1DIPC   GL222588   9.844  12.827   3.362 -0.3054  0.0734 -0.0636
    1DIPC   C1A22589  10.178  13.159   3.659  0.1220 -0.1357 -0.2453
    1DIPC   D2A22590  10.158  13.180   4.061 -0.1086  0.0983  0.0619
    1DIPC   D3A22591   9.738  13.358   4.007 -0.0811  0.0461  0.0177
    1DIPC   C4A22592   9.396  13.212   3.799 -0.0532  0.1636  0.0565
    1DIPC   C1B22593   9.690  12.803   3.828  0.0808  0.0269 -0.0754
    1DIPC   D2B22594   9.441  12.863   4.143 -0.0355 -0.0448 -0.0469
    1DIPC   D3B22595   9.053  13.142   4.182 -0.0064 -0.2129 -0.2836
    1DIPC   C4B22596   8.826  13.518   3.996 -0.1013 -0.1218 -0.2206
    1DIPC   NC322597  26.029  18.472   2.418  0.1209 -0.0159  0.3183
    1DIPC   PO422598  25.762  18.820   2.365  0.3400  0.0534  0.3721
    1DIPC   GL122599  25.647  18.937   2.763 -0.2045 -0.1967 -0.0244
    1DIPC   GL222600  25.900  18.806   2.960  0.0247  0.0587 -0.0864
    1DIPC   C1A22601  25.560  19.050   3.224 -0.1224 -0.1324 -0.1292
    1DIPC   D2A22602  25.795  18.816   3.637  0.3556  0.1131 -0.1792
    1DIPC   D3A22603  25.618  19.012   4.083  0.0846 -0.1122  0.2160
    1DIPC   C4A22604  25.188  18.804   4.269  0.0640  0.0453  0.3266
    1DIPC   C1B22605  25.911  18.509   3.300  0.2021 -0.1158  0.1498
    1DIPC   D2B22606  25.800  18.301   3.686 -0.1496 -0.2135 -0.2434
    1DIPC   D3B22607  25.346  18.102   3.530  0.1495  0.0213  0.1522
    1DIPC   C4B22608  25.142  17.964   3.790 -0.6086 -0.1569  0.2568
    1DIPC   NC322609  21.696  21.508   1.942  0.3430  0.1247 -0.0166
    1DIPC   PO422610  21.306  21.419   2.174 -0.5391  0.0785 -0.2642
    1DIPC   GL122611  21.134  21.354   2.518 -0.3952  0.2555 -0.0431
    1DIPC   GL222612  21.291  21.523   2.794  0.2218 -0.1776  0.0146
    1DIPC   C1A22613  20.872  21.217   2.797  0.1652  0.0771 -0.0849
    1DIPC   D2A22614  20.383  21.292   2.677 -0.1513 -0.0999  0.0905
    1DIPC   D3A22615  20.169  21.092   2.432 -0.1101  0.0306 -0.1992
    1DIPC   C4A22616  20.109  20.665   2.484  0.1884 -0.0844 -0.2567
    1DIPC   C1B22617  21.158  21.365   3.169 -0.0692 -0.0057  0.0704
    1DIPC   D2B22618  21.199  21.348   3.695  0.1822  0.0512 -0.1704
    1DIPC   D3B22619  20.783  21.324   3.534  0.0831  0.2342 -0.0457
    1DIPC   C4B22620  20.749  21.055   3.986  0.1825  0.1381 -0.1668
    1DIPC   NC322621  28.705  12.586   2.563  0.3824 -0.0936 -0.0174
    1DIPC   PO422622  28.597  12.228   2.767  0.2162  0.0621  0.0020
    1DIPC   GL122623  28.402  12.141   3.173  0.3136 -0.0160 -0.0989
    1DIPC   GL222624  28.569  12.426   3.294 -0.0333 -0.0245  0.3742
    1DIPC   C1A22625  28.557  12.012   3.654 -0.0583  0.1068 -0.1685
    1DIPC   D2A22626  28.706  11.821   3.968 -0.1215  0.0453  0.4964
    1DIPC   D3A22627  28.337  11.886   4.241 -0.1377 -0.2448 -0.2628
    1DIPC   C4A22628  27.923  11.709   4.481  0.0411 -0.1069 -0.1483
    1DIPC   C1B22629  28.729  12.462   3.805 -0.1970 -0.0294  0.1752
    1DIPC   D2B22630  28.745  12.239   4.143  0.1555  0.3127 -0.2640
    1DIPC   D3B22631  28.904  12.395   4.433  0.0088  0.0653 -0.0896
    1DIPC   C4B22632  29.341  12.289   4.694  0.1330  0.1224  0.2624
    1DIPC   NC322633   9.873  10.288   2.733  0.1905  0.0095 -0.0543
    1DIPC   PO422634  10.045  10.682   2.906 -0.3806  0.2736  0.0014
    1DIPC   GL122635  10.027  10.823   3.333 -0.2769  0.0292 -0.0426
    1DIPC   GL222636  10.384  10.824   3.293  0.0738 -0.1174 -0.0305
    1DIPC   C1A22637  10.047  10.929   3.751  0.0680  0.3766 -0.2320
    1DIPC   D2A22638   9.685  11.217   3.986 -0.2800 -0.1817 -0.0272
    1DIPC   D3A22639   9.914  11.071   4.302 -0.2751 -0.2143 -0.1891
    1DIPC   C4A22640   9.906  10.887   4.749  0.2951 -0.0883 -0.1695
    1DIPC   C1B22641  10.533  11.073   3.577 -0.3295 -0.1092  0.0397
    1DIPC   D2B22642  10.996  11.234   3.671 -0.1003 -0.2465 -0.0590
    1DIPC   D3B22643  10.772  11.087   4.071  0.3918 -0.0380  0.0936
    1DIPC   C4B22644  10.359  11.083   4.104  0.2455 -0.1225  0.2437
    1DIPC   NC322645  27.395  24.348   2.325 -0.0080 -0.1783  0.1752
    1DIPC   PO422646  27.316  24.303   2.819 -0.1296 -0.2258  0.1078
    1DIPC   GL122647  27.365  24.270   3.239  0.1477 -0.0591  0.2623
    1DIPC   GL222648  27.265  23.864   3.378 -0.0922  0.0126  0.2208
    1DIPC   C1A22649  27.521  24.424   3.712 -0.4011 -0.0823 -0.0779
    1DIPC   D2A22650  27.366  24.618   4.039 -0.0439  0.4244  0.1681
    1DIPC   D3A22651  27.865  24.697   4.253 -0.0378  0.1290 -0.2439
    1DIPC   C4A22652  28.105  25.065   4.195 -0.1058  0.1362 -0.2181
    1DIPC   C1B22653  27.548  23.885   3.786 -0.2766 -0.3906  0.0731
    1DIPC   D2B22654  27.804  23.750   4.129  0.3520  0.2179 -0.1330
    1DIPC   D3B22655  28.052  23.802   4.643  0.1541 -0.0615  0.1716
    1DIPC   C4B22656  27.967  23.931   5.099 -0.0746 -0.2422 -0.1844
    1DIPC   NC322657  11.709   1.227   3.646  0.1620 -0.1303 -0.0906
    1DIPC   PO422658  11.688   1.603   3.746  0.1457  0.1838 -0.0887
    1DIPC   GL122659  11.514   1.669   4.199 -0.3697  0.1648 -0.2770
    1DIPC   GL222660  11.566   1.996   4.202  0.1182 -0.0254 -0.0847
    1DIPC   C1A22661  11.455   1.760   4.657 -0.1768  0.2479  0.3296
    1DIPC   D2A22662  11.586   1.624   5.090  0.0546  0.0714  0.4200
    1DIPC   D3A22663  11.155   1.855   5.226  0.1345  0.4064 -0.1854
    1DIPC   C4A22664  10.824   1.642   5.465 -0.1964 -0.1651 -0.4269
    1DIPC   C1B22665  11.953   1.865   4.371  0.2482  0.0055 -0.0708
    1DIPC   D2B22666  11.986   1.952   4.754 -0.1489 -0.2583 -0.0531
    1DIPC   D3B22667  12.108   1.608   4.950 -0.1235 -0.1283 -0.1029
    1DIPC   C4B22668  12.016   1.761   5.310  0.0875 -0.0154  0.2164
    1DIPC   NC322669  13.374   9.768   2.834 -0.1033 -0.1298 -0.1995
    1DIPC   PO422670  13.773   9.985   2.639 -0.3904 -0.0676 -0.1568
    1DIPC   GL122671  13.736   9.931   3.197  0.0951 -0.0296 -0.0840
    1DIPC   GL222672  14.012   9.884   3.393 -0.3183 -0.0414 -0.1650
    1DIPC   C1A22673  13.544   9.896   3.690  0.1424  0.3359  0.0310
    1DIPC   D2A22674  13.473  10.111   4.054 -0.1107  0.1227  0.1542
    1DIPC   D3A22675  13.383  10.535   4.162  0.1675 -0.1004 -0.2216
    1DIPC   C4A22676  13.034  10.665   3.860 -0.1162  0.0457 -0.1804
    1DIPC   C1B22677  13.939  10.255   3.567  0.1216 -0.2250 -0.2117
    1DIPC   D2B22678  13.862  10.570   3.947  0.0726 -0.0580 -0.2829
    1DIPC   D3B22679  13.867  10.398   4.261 -0.0244 -0.0452  0.2057
    1DIPC   C4B22680  13.509  10.630   4.631 -0.1502 -0.3575 -0.1406
    1DIPC   NC322681  13.993  25.163   2.293  0.0027  0.0428  0.2803
    1DIPC   PO422682  14.276  25.464   2.293 -0.0031 -0.0260  0.0087
    1DIPC   GL122683  14.375  25.402   2.600  0.2785  0.0655  0.1048
    1DIPC   GL222684  14.557  25.601   2.769 -0.0107 -0.1816  0.1235
    1DIPC   C1A22685  14.239  25.270   3.011  0.1147 -0.1171  0.1347
    1DIPC   D2A22686  13.791  25.114   3.214  0.0345 -0.0728  0.0885
    1DIPC   D3A22687  13.806  24.954   3.728  0.1250  0.1377 -0.0365
    1DIPC   C4A22688  14.103  25.107   4.028 -0.0801  0.3061  0.0857
    1DIPC   C1B22689  15.066  25.613   3.072 -0.1038 -0.1062  0.2448
    1DIPC   D2B22690  15.354  25.557   3.435 -0.1956  0.3240  0.0553
    1DIPC   D3B22691  15.144  25.397   3.788  0.0677  0.1725  0.1250
    1DIPC   C4B22692  15.322  25.312   4.162 -0.3548 -0.2279  0.0401
    1DIPC   NC322693   5.132  23.309   2.091 -0.0765 -0.0221 -0.0990
    1DIPC   PO422694   5.639  23.314   2.171 -0.0230  0.3102  0.0564
    1DIPC   GL122695   5.678  23.279   2.654  0.0901  0.0611  0.3003
    1DIPC   GL222696   5.962  23.346   2.716  0.2410 -0.1114  0.1290
    1DIPC   C1A22697   5.430  23.511   2.921 -0.0125  0.0244  0.0314
    1DIPC   D2A22698   4.942  23.542   2.787 -0.0041 -0.0981 -0.1050
    1DIPC   D3A22699   5.124  23.169   2.570  0.1307 -0.1836  0.4133
    1DIPC   C4A22700   5.326  22.865   2.780 -0.1855 -0.0138 -0.1633
    1DIPC   C1B22701   6.214  23.336   3.097 -0.4755  0.3259  0.1385
    1DIPC   D2B22702   6.393  23.316   3.428 -0.0026 -0.6139  0.1701
    1DIPC   D3B22703   6.463  23.532   3.968 -0.4115  0.0704  0.3974
    1DIPC   C4B22704   6.503  23.272   4.319  0.3496 -0.2142  0.1079
    1DIPC   NC322705  12.371  28.699   3.186 -0.1472 -0.2027  0.2121
    1DIPC   PO422706  12.343  29.058   2.978  0.0910  0.3555 -0.1366
    1DIPC   GL122707  12.334  29.112   3.462 -0.0876 -0.1533 -0.0815
    1DIPC   GL222708  12.053  29.183   3.611 -0.0034 -0.0086 -0.1388
    1DIPC   C1A22709  12.509  28.877   3.867 -0.2891 -0.3722  0.0507
    1DIPC   D2A22710  12.745  28.925   4.281  0.1230  0.2455  0.2182
    1DIPC   D3A22711  12.493  28.776   4.493 -0.0896  0.0255  0.1147
    1DIPC   C4A22712  12.037  28.775   4.309 -0.2433 -0.0546  0.1437
    1DIPC   C1B22713  11.744  29.238   4.082  0.2566  0.2705 -0.0899
    1DIPC   D2B22714  11.578  29.068   4.520 -0.1165  0.2981  0.0009
    1DIPC   D3B22715  11.485  28.682   4.715  0.0979 -0.3534  0.0211
    1DIPC   C4B22716  11.900  28.440   4.614  0.0406 -0.0802 -0.0369
    1DIPC   NC322717  11.873   0.462   3.408 -0.1242 -0.1429 -0.2118
    1DIPC   PO422718  12.268   0.665   3.454  0.1592  0.4266 -0.0777
    1DIPC   GL122719  12.336   0.471   3.814  0.0970 -0.3531  0.5013
    1DIPC   GL222720  12.507   0.160   3.823 -0.0265  0.0216  0.2894
    1DIPC   C1A22721  12.322   0.644   4.194 -0.0717 -0.1488 -0.2379
    1DIPC   D2A22722  12.382   0.563   4.662 -0.0366 -0.1496  0.4150
    1DIPC   D3A22723  12.463   0.665   5.126 -0.0695  0.0067  0.2630
    1DIPC   C4A22724  12.586   1.058   5.296 -0.2428  0.0098  0.1878
    1DIPC   C1B22725  12.576   0.111   4.253  0.3550  0.4694 -0.0444
    1DIPC   D2B22726  13.068   0.070   4.371  0.0616  0.1042 -0.0035
    1DIPC   D3B22727  13.256  29.787   4.828  0.0605  0.1770 -0.0221
    1DIPC   C4B22728  13.056  29.520   5.188 -0.1012  0.1935 -0.2010
    1DIPC   NC322729  12.322   2.946   3.848 -0.1137  0.2720 -0.0273
    1DIPC   PO422730  11.938   3.281   3.915 -0.1235 -0.1624  0.1052
    1DIPC   GL122731  12.085   3.078   4.280  0.0150 -0.0801  0.1191
    1DIPC   GL222732  12.390   3.191   4.418 -0.0953 -0.0902 -0.1665
    1DIPC   C1A22733  12.134   2.797   4.643 -0.0054 -0.0194 -0.1456
    1DIPC   D2A22734  11.926   2.495   4.993 -0.1314  0.1616  0.1969
    1DIPC   D3A22735  12.222   2.217   5.110  0.0629 -0.0447  0.3405
    1DIPC   C4A22736  12.420   2.276   5.482  0.0881  0.3734 -0.1280
    1DIPC   C1B22737  12.546   3.058   4.783  0.0961 -0.2744 -0.1269
    1DIPC   D2B22738  12.640   3.154   5.211 -0.0013  0.1111 -0.1870
    1DIPC   D3B22739  12.976   3.277   5.010  0.3907  0.0265 -0.1267
    1DIPC   C4B22740  13.349   3.090   4.861 -0.0669  0.3592 -0.2191
    1DIPC   NC322741  16.459  26.351   2.689  0.0096  0.0107  0.0189
    1DIPC   PO422742  16.808  26.462   2.852  0.0694  0.2089 -0.4298
    1DIPC   GL122743  16.518  26.253   3.196 -0.3324 -0.0844 -0.0983
    1DIPC   GL222744  16.311  25.975   3.324 -0.2143  0.3000 -0.0885
    1DIPC   C1A22745  16.391  26.581   3.571 -0.1314  0.0174  0.2306
    1DIPC   D2A22746  16.578  26.834   3.757  0.1570  0.1206  0.3075
    1DIPC   D3A22747  16.650  27.272   3.942  0.1115 -0.0950 -0.3277
    1DIPC   C4A22748  16.524  27.365   4.365  0.2659 -0.1267 -0.0945
    1DIPC   C1B22749  16.523  25.756   3.670  0.2208 -0.1009 -0.0203
    1DIPC   D2B22750  16.591  25.376   3.822 -0.1275 -0.0467  0.0587
    1DIPC   D3B22751  16.583  25.683   4.160 -0.1533  0.0554  0.0306
    1DIPC   C4B22752  16.309  25.947   4.184  0.0646  0.0278 -0.0931
    1DIPC   NC322753  18.965  29.120   2.764  0.0266  0.1877  0.0421
    1DIPC   PO422754  19.322  28.844   3.006  0.1333 -0.1017 -0.0938
    1DIPC   GL122755  19.201  29.049   3.416  0.1794  0.1912  0.1098
    1DIPC   GL222756  18.918  29.065   3.594  0.0593 -0.0532 -0.1052
    1DIPC   C1A22757  19.339  28.915   3.854 -0.2118 -0.1040  0.3452
    1DIPC   D2A22758  19.633  28.787   4.199 -0.2183  0.1617  0.2207
    1DIPC   D3A22759  19.220  28.698   4.312  0.2874  0.1371 -0.0169
    1DIPC   C4A22760  18.950  28.524   3.956  0.1917  0.2999  0.1624
    1DIPC   C1B22761  18.630  28.755   3.711  0.2666 -0.1446  0.1942
    1DIPC   D2B22762  18.321  28.850   3.952 -0.4205  0.2023  0.1245
    1DIPC   D3B22763  18.371  28.716   4.457 -0.2415  0.1742  0.2507
    1DIPC   C4B22764  18.000  28.840   4.668  0.0127  0.1172 -0.1968
    1DIPC   NC322765   9.119   7.225   2.991  0.0852 -0.0665 -0.0172
    1DIPC   PO422766   8.764   6.810   2.915 -0.4525  0.0310  0.3335
    1DIPC   GL122767   8.669   6.737   3.297  0.0900 -0.3119 -0.0139
    1DIPC   GL222768   8.965   6.904   3.399  0.1226 -0.1386  0.0058
    1DIPC   C1A22769   8.659   6.576   3.670  0.0576 -0.1944 -0.0420
    1DIPC   D2A22770   8.708   6.235   3.840 -0.3338  0.2783 -0.1038
    1DIPC   D3A22771   8.604   6.248   4.257  0.0575 -0.0954  0.0325
    1DIPC   C4A22772   8.375   6.049   4.620  0.2162  0.2539 -0.1985
    1DIPC   C1B22773   9.273   6.963   3.710 -0.0108  0.1030 -0.0624
    1DIPC   D2B22774   9.323   7.194   4.107  0.2097 -0.0657 -0.0398
    1DIPC   D3B22775   8.990   7.019   4.340  0.1906 -0.1502  0.0445
    1DIPC   C4B22776   8.682   7.049   4.667  0.0950 -0.1099  0.2759
    1DIPC   NC322777  25.182  20.312   2.576 -0.1604 -0.3259  0.1846
    1DIPC   PO422778  25.350  20.597   2.782  0.0569 -0.4398  0.0955
    1DIPC   GL122779  25.235  20.521   3.279  0.0698  0.1868  0.3665
    1DIPC   GL222780  24.908  20.561   3.435 -0.0733 -0.1731 -0.0005
    1DIPC   C1A22781  25.340  20.179   3.553  0.0946  0.0636  0.4159
    1DIPC   D2A22782  25.357  20.228   3.987 -0.0100  0.2357 -0.2310
    1DIPC   D3A22783  24.936  20.029   3.804 -0.4116 -0.0002  0.3642
    1DIPC   C4A22784  24.657  19.832   4.024  0.2002 -0.0699 -0.1575
    1DIPC   C1B22785  24.498  20.826   3.674 -0.0743 -0.0659  0.3094
    1DIPC   D2B22786  24.071  21.037   3.396 -0.2584 -0.1429  0.2256
    1DIPC   D3B22787  23.696  21.081   3.550  0.3476  0.0233 -0.1636
    1DIPC   C4B22788  23.735  21.314   3.930  0.1575  0.1197  0.0273
    1DIPC   NC322789   8.108  16.199   2.285  0.3037  0.1246  0.0495
    1DIPC   PO422790   8.185  16.424   2.579  0.0347  0.0336  0.0895
    1DIPC   GL122791   8.446  16.313   2.930 -0.1894 -0.1039  0.0517
    1DIPC   GL222792   8.248  16.135   3.126 -0.1124 -0.0685  0.3431
    1DIPC   C1A22793   8.667  16.196   3.373 -0.1769 -0.3800  0.1350
    1DIPC   D2A22794   9.083  15.962   3.273  0.0249  0.0553 -0.1310
    1DIPC   D3A22795   9.168  16.353   3.339 -0.0162 -0.1870 -0.1483
    1DIPC   C4A22796   9.312  16.743   3.665  0.0343  0.0555  0.1525
    1DIPC   C1B22797   8.295  16.027   3.538  0.2551 -0.2659  0.0262
    1DIPC   D2B22798   8.096  16.055   3.984 -0.2587  0.4363 -0.0619
    1DIPC   D3B22799   7.794  15.841   4.285  0.1735  0.2021  0.0197
    1DIPC   C4B22800   7.346  15.548   4.212  0.0761  0.1777  0.0759
    1DIPC   NC322801   0.323  10.611   2.456  0.1844 -0.2150  0.0721
    1DIPC   PO422802   0.678  10.464   2.648 -0.3523  0.0113 -0.2642
    1DIPC   GL122803   0.937  10.346   2.973 -0.2273  0.0221  0.0964
    1DIPC   GL222804   0.921  10.497   3.266 -0.3242  0.0653  0.0541
    1DIPC   C1A22805   1.390  10.225   3.055 -0.0970  0.0376 -0.1708
    1DIPC   D2A22806   1.815  10.356   3.190  0.2548  0.1059 -0.0900
    1DIPC   D3A22807   1.858   9.938   3.257  0.0828  0.1214  0.0780
    1DIPC   C4A22808   1.445   9.725   3.334 -0.1471 -0.0456 -0.3130
    1DIPC   C1B22809   0.959  10.585   3.693  0.0527 -0.2219  0.0529
    1DIPC   D2B22810   0.825  10.901   3.901  0.3551 -0.0079  0.0192
    1DIPC   D3B22811   1.099  11.351   3.840 -0.2776  0.0361  0.2746
    1DIPC   C4B22812   1.245  11.504   4.210 -0.3006  0.0105 -0.1850
    1DIPC   NC322813  16.458  29.183   2.995  0.1571 -0.0506 -0.1449
    1DIPC   PO422814  16.215  28.812   3.190 -0.0415 -0.0914 -0.0632
    1DIPC   GL122815  16.099  28.689   3.559 -0.1962 -0.0418 -0.0110
    1DIPC   GL222816  15.778  28.907   3.772 -0.1297  0.3717 -0.3274
    1DIPC   C1A22817  15.975  28.546   4.002  0.2847  0.2830  0.0621
    1DIPC   D2A22818  16.079  28.615   4.449  0.1938 -0.0935  0.4027
    1DIPC   D3A22819  15.707  28.525   4.609  0.1267  0.1909  0.0168
    1DIPC   C4A22820  15.612  28.088   4.876  0.1657 -0.2857 -0.1929
    1DIPC   C1B22821  15.493  28.629   4.086  0.0563  0.4120  0.0051
    1DIPC   D2B22822  15.316  28.812   4.520 -0.4075 -0.3112  0.5161
    1DIPC   D3B22823  15.296  28.296   4.428  0.0987 -0.0729  0.2657
    1DIPC   C4B22824  15.289  27.777   4.397  0.1170 -0.0219  0.1391
    1DIPC   NC322825   7.078   0.851   2.829 -0.1633 -0.0384  0.1764
    1DIPC   PO422826   6.838   0.457   2.931  0.1200  0.0896  0.1285
    1DIPC   GL122827   6.657   0.278   3.203  0.1920  0.3685 -0.2818
    1DIPC   GL222828   6.798   0.402   3.567  0.3312 -0.2793 -0.1612
    1DIPC   C1A22829   6.434   0.101   3.543 -0.0668  0.1496 -0.2803
    1DIPC   D2A22830   6.163   0.278   3.717 -0.0847  0.0582  0.1300
    1DIPC   D3A22831   5.690   0.239   3.606 -0.1132  0.0266 -0.0092
    1DIPC   C4A22832   5.522  29.741   3.875 -0.0018  0.1918 -0.0087
    1DIPC   C1B22833   6.719   0.309   4.045  0.0416  0.0393 -0.0507
    1DIPC   D2B22834   6.392   0.099   4.361 -0.2335 -0.1905  0.2907
    1DIPC   D3B22835   6.712   0.250   4.505 -0.2111  0.0568 -0.1372
    1DIPC   C4B22836   6.663   0.417   4.962 -0.0104  0.0672 -0.0732
    1DIPC   NC322837  24.628  22.058   2.344 -0.3265  0.0803 -0.0939
    1DIPC   PO422838  24.535  22.103   2.842 -0.3142  0.0506  0.2581
    1DIPC   GL122839  24.551  21.757   3.120 -0.0356 -0.2463 -0.1338
    1DIPC   GL222840  24.294  21.441   3.129 -0.0919 -0.1461  0.0602
    1DIPC   C1A22841  24.617  21.858   3.607  0.0443 -0.1912  0.0225
    1DIPC   D2A22842  24.673  21.835   4.033  0.0321 -0.0594  0.1029
    1DIPC   D3A22843  24.562  21.343   4.017 -0.0156 -0.2318 -0.3310
    1DIPC   C4A22844  24.835  21.009   4.026  0.0028 -0.1963 -0.1621
    1DIPC   C1B22845  24.461  21.369   3.489 -0.2818 -0.1301  0.0135
    1DIPC   D2B22846  24.147  21.117   3.889  0.1467  0.2578 -0.1958
    1DIPC   D3B22847  24.374  20.776   4.130 -0.0973  0.1975  0.0589
    1DIPC   C4B22848  24.387  20.658   4.516  0.0930 -0.0363 -0.0076
    1DIPC   NC322849  11.976  26.878   2.211  0.3459  0.2692  0.4154
    1DIPC   PO422850  12.185  26.494   2.467  0.0340  0.1822 -0.0081
    1DIPC   GL122851  11.929  26.583   2.794  0.0386 -0.0480 -0.3708
    1DIPC   GL222852  12.142  26.615   3.007 -0.1303  0.1390  0.2043
    1DIPC   C1A22853  11.620  26.348   2.942  0.3561  0.1310  0.1644
    1DIPC   D2A22854  11.576  26.073   3.348  0.0690 -0.2237 -0.3724
    1DIPC   D3A22855  11.499  26.006   3.754 -0.2529  0.1341 -0.0207
    1DIPC   C4A22856  11.759  25.789   4.076  0.2170 -0.1717  0.1129
    1DIPC   C1B22857  11.848  26.573   3.410 -0.1224  0.0126 -0.0181
    1DIPC   D2B22858  11.453  26.483   3.718 -0.0268 -0.1654  0.0317
    1DIPC   D3B22859  11.449  26.402   4.090 -0.0140 -0.1714 -0.3418
    1DIPC   C4B22860  11.566  26.124   4.467 -0.0667 -0.0746 -0.0849
    1DIPC   NC322861  16.802   3.894   4.182  0.0819  0.0686 -0.0300
    1DIPC   PO422862  16.822   3.496   4.347 -0.2998  0.1212 -0.2094
    1DIPC   GL122863  16.766   3.452   4.780 -0.0388  0.0896 -0.0942
    1DIPC   GL222864  16.889   3.120   4.972  0.5402 -0.0954  0.1076
    1DIPC   C1A22865  16.620   3.408   5.209  0.2946 -0.1412  0.2656
    1DIPC   D2A22866  16.660   3.645   5.578 -0.0677 -0.1399  0.1021
    1DIPC   D3A22867  16.308   3.523   5.791 -0.1440  0.0512 -0.2492
    1DIPC   C4A22868  15.983   3.665   6.003 -0.0074  0.3326 -0.1875
    1DIPC   C1B22869  16.498   2.857   5.034  0.1244 -0.0317 -0.0257
    1DIPC   D2B22870  16.172   2.619   5.265 -0.1299  0.3974 -0.2285
    1DIPC   D3B22871  16.529   2.556   5.650 -0.1330 -0.0091 -0.0062
    1DIPC   C4B22872  16.755   2.728   5.950 -0.1151  0.4342 -0.1498
    1DIPC   NC322873   1.054  25.491   2.049  0.1117 -0.0809 -0.2010
    1DIPC   PO422874   0.910  25.081   1.936 -0.1202  0.1708  0.0538
    1DIPC   GL122875   1.289  25.157   2.319  0.0382 -0.1665  0.3964
    1DIPC   GL222876   1.531  25.108   2.264  0.2255  0.1063 -0.0755
    1DIPC   C1A22877   1.329  25.157   2.712  0.0242  0.1138 -0.2297
    1DIPC   D2A22878   1.255  24.781   3.049 -0.1402  0.0320 -0.0693
    1DIPC   D3A22879   1.267  24.853   3.522  0.0716  0.2388 -0.3134
    1DIPC   C4A22880   1.570  24.637   3.798  0.4181 -0.1427 -0.1373
    1DIPC   C1B22881   1.574  24.752   2.464 -0.1214  0.1151 -0.2065
    1DIPC   D2B22882   1.613  24.501   2.773 -0.0080  0.1440 -0.0396
    1DIPC   D3B22883   1.423  24.102   2.597 -0.2718  0.2359 -0.3165
    1DIPC   C4B22884   1.395  23.743   2.901 -0.0635 -0.2038 -0.1032
    1DIPC   NC322885  28.234   7.304   2.974  0.1642  0.1955 -0.3816
    1DIPC   PO422886  28.606   7.066   3.033  0.0225  0.1624  0.1335
    1DIPC   GL122887  28.635   6.955   3.522 -0.3107  0.0598 -0.3444
    1DIPC   GL222888  28.959   6.901   3.670  0.4741  0.3705  0.0596
    1DIPC   C1A22889  28.533   6.571   3.810  0.1165 -0.0095  0.0282
    1DIPC   D2A22890  28.424   6.197   3.751  0.0167  0.1410  0.0475
    1DIPC   D3A22891  28.497   6.132   4.066  0.2289 -0.0661  0.1524
    1DIPC   C4A22892  28.473   5.728   4.072 -0.1121  0.3012 -0.1524
    1DIPC   C1B22893  29.171   7.256   3.849  0.0355  0.0371 -0.1678
    1DIPC   D2B22894  29.463   7.515   4.037 -0.0615  0.0305  0.0340
    1DIPC   D3B22895  29.202   7.382   4.405  0.3954  0.2904  0.0006
    1DIPC   C4B22896  29.362   7.135   4.648 -0.1383  0.0696 -0.4215
    1DIPC   NC322897  13.132  10.556   2.653 -0.1068  0.1443 -0.0651
    1DIPC   PO422898  13.054  10.185   2.858 -0.4563  0.0110  0.0810
    1DIPC   GL122899  13.027  10.036   3.324 -0.0993  0.3282 -0.0782
    1DIPC   GL222900  12.659  10.124   3.488 -0.1515  0.0248 -0.1091
    1DIPC   C1A22901  13.065  10.077   3.744 -0.3377 -0.0880  0.2189
    1DIPC   D2A22902  12.985  10.238   4.146 -0.1679  0.1526 -0.4989
    1DIPC   D3A22903  13.263  10.225   4.512 -0.4322  0.0705  0.0572
    1DIPC   C4A22904  13.656   9.975   4.499  0.3878  0.2198  0.1036
    1DIPC   C1B22905  12.663   9.899   3.892  0.2701 -0.2448 -0.3938
    1DIPC   D2B22906  12.770   9.828   4.249 -0.4352  0.2214  0.0238
    1DIPC   D3B22907  12.725   9.418   4.184 -0.1445  0.3709  0.0269
    1DIPC   C4B22908  12.817   9.135   3.981 -0.1242 -0.0537  0.4797
    1DIPC   NC322909  22.045  29.782   3.118  0.1707 -0.1342  0.0123
    1DIPC   PO422910  21.991  29.596   3.511  0.1235  0.2949  0.0846
    1DIPC   GL122911  22.308  29.529   3.833  0.0942  0.1213  0.1111
    1DIPC   GL222912  22.559  29.352   3.747 -0.2444  0.5686  0.3960
    1DIPC   C1A22913  22.538  29.323   4.226  0.3102 -0.0586 -0.2974
    1DIPC   D2A22914  22.260  29.153   4.710  0.0072  0.1337  0.1133
    1DIPC   D3A22915  22.679  29.065   4.712 -0.0236 -0.2055  0.0968
    1DIPC   C4A22916  22.964  29.267   5.033  0.1496 -0.0638 -0.0831
    1DIPC   C1B22917  22.833  29.055   3.965  0.0110 -0.0228  0.1448
    1DIPC   D2B22918  22.865  28.829   4.316  0.1714  0.0832  0.2386
    1DIPC   D3B22919  23.074  28.470   4.280 -0.0463 -0.0853 -0.1161
    1DIPC   C4B22920  22.992  28.207   4.565 -0.0490 -0.1106 -0.1071
    1DIPC   NC322921  17.729   2.202   4.185 -0.0759 -0.2413  0.2766
    1DIPC   PO422922  17.299   2.156   3.984 -0.3849 -0.3175 -0.0350
    1DIPC   GL122923  17.194   2.121   4.404  0.2086 -0.0691 -0.2373
    1DIPC   GL222924  16.895   2.090   4.389 -0.1085  0.0983  0.1959
    1DIPC   C1A22925  17.344   2.191   4.797  0.2549 -0.1988 -0.1150
    1DIPC   D2A22926  17.318   2.151   5.151  0.1626  0.1067 -0.2316
    1DIPC   D3A22927  17.715   1.984   5.242 -0.1598 -0.1255 -0.0571
    1DIPC   C4A22928  18.096   2.216   4.929 -0.0636  0.2052 -0.0212
    1DIPC   C1B22929  16.748   2.134   4.892  0.0037 -0.0712  0.0106
    1DIPC   D2B22930  16.485   2.318   5.127  0.2138 -0.0811 -0.0550
    1DIPC   D3B22931  16.327   2.110   5.531 -0.1060  0.1222  0.3421
    1DIPC   C4B22932  15.856   2.185   5.776 -0.0400  0.1934  0.0556
    1DIPC   NC322933  11.576   4.176   4.368  0.1171 -0.1488  0.0160
    1DIPC   PO422934  11.318   3.797   4.353 -0.2697 -0.5381  0.0005
    1DIPC   GL122935  11.277   3.946   4.755 -0.1647  0.0854 -0.0188
    1DIPC   GL222936  11.442   4.197   4.821 -0.2375 -0.1566  0.0906
    1DIPC   C1A22937  11.043   3.871   5.114  0.0701  0.6262  0.0594
    1DIPC   D2A22938  10.769   4.001   5.489 -0.1548  0.1849  0.1486
    1DIPC   D3A22939  10.796   4.349   5.129 -0.2840  0.2677  0.2090
    1DIPC   C4A22940  11.240   4.695   5.024  0.2206  0.2183 -0.2859
    1DIPC   C1B22941  11.509   4.302   5.313 -0.0749 -0.0753  0.0413
    1DIPC   D2B22942  11.434   4.425   5.750 -0.2554 -0.2985 -0.0918
    1DIPC   D3B22943  11.004   4.452   5.582 -0.1342 -0.1082 -0.0304
    1DIPC   C4B22944  10.817   4.747   5.430  0.2065  0.1999  0.0030
    1DIPC   NC322945  28.553  14.806   2.857 -0.1568  0.0827 -0.2412
    1DIPC   PO422946  29.015  14.677   2.718 -0.1762 -0.0821 -0.2397
    1DIPC   GL122947  28.905  14.688   3.170 -0.5471 -0.1182 -0.1130
    1DIPC   GL222948  28.636  14.595   3.328 -0.1418 -0.0264 -0.0390
    1DIPC   C1A22949  29.127  14.916   3.459 -0.1115  0.0418  0.0184
    1DIPC   D2A22950  29.447  14.835   3.757 -0.0940 -0.1144 -0.1901
    1DIPC   D3A22951  29.456  14.967   4.163  0.1380  0.0196 -0.1500
    1DIPC   C4A22952  29.170  15.191   4.362  0.0438 -0.0081  0.1766
    1DIPC   C1B22953  28.620  14.876   3.705  0.0994  0.0005 -0.1523
    1DIPC   D2B22954  28.573  15.144   4.003  0.0888 -0.0907  0.1063
    1DIPC   D3B22955  28.386  15.461   3.685  0.2094 -0.2255 -0.1677
    1DIPC   C4B22956  28.330  15.796   3.904 -0.2350  0.1205  0.2024
    1DIPC   NC322957   1.873  11.984   2.566  0.1563 -0.1942 -0.0935
    1DIPC   PO422958   1.893  12.298   2.847 -0.0453 -0.0458  0.1756
    1DIPC   GL122959   1.883  12.432   3.218 -0.2180  0.2119  0.4173
    1DIPC   GL222960   1.984  12.812   3.324 -0.2995  0.1069 -0.0229
    1DIPC   C1A22961   1.766  12.165   3.536 -0.2905 -0.1988  0.0044
    1DIPC   D2A22962   1.679  11.712   3.544  0.1093 -0.1564  0.0011
    1DIPC   D3A22963   1.622  11.415   3.874 -0.1483  0.1668 -0.5103
    1DIPC   C4A22964   1.760  11.381   4.319  0.1326 -0.2256  0.1326
    1DIPC   C1B22965   1.813  12.622   3.647  0.0451 -0.0589 -0.1458
    1DIPC   D2B22966   2.002  12.378   3.947  0.1535  0.1177 -0.1110
    1DIPC   D3B22967   2.435  12.346   3.784 -0.0511  0.2209 -0.0575
    1DIPC   C4B22968   2.394  12.653   3.561  0.1241  0.1000  0.3046
    1DIPC   NC322969  16.741   0.392   3.982 -0.0026  0.0474  0.0900
    1DIPC   PO422970  16.469   0.678   4.185  0.1854  0.0705  0.1722
    1DIPC   GL122971  16.653   0.498   4.518  0.0173  0.0320 -0.2411
    1DIPC   GL222972  16.945   0.318   4.439 -0.1781  0.0605 -0.1496
    1DIPC   C1A22973  16.436   0.564   4.982 -0.0039 -0.1455  0.3853
    1DIPC   D2A22974  16.588   0.526   5.442 -0.0684 -0.0365  0.3006
    1DIPC   D3A22975  16.719   0.291   5.697  0.1488 -0.1112  0.1179
    1DIPC   C4A22976  16.712  29.633   5.615  0.0057  0.1754 -0.0602
    1DIPC   C1B22977  16.923   0.225   4.852  0.1942 -0.2213  0.1329
    1DIPC   D2B22978  16.599   0.068   5.189 -0.0203 -0.1152  0.0773
    1DIPC   D3B22979  16.516  29.565   5.147  0.1561  0.1304 -0.0993
    1DIPC   C4B22980  16.205  29.260   4.840 -0.1204  0.1727  0.2088
    1DIPC   NC322981   2.334  28.686   1.389 -0.2944 -0.0591  0.4609
    1DIPC   PO422982   2.512  28.687   1.856 -0.1336 -0.1234 -0.2702
    1DIPC   GL122983   2.635  28.649   2.310 -0.0553 -0.0859  0.0873
    1DIPC   GL222984   2.627  29.005   2.375 -0.0653 -0.1073  0.2145
    1DIPC   C1A22985   2.970  28.347   2.457 -0.0759 -0.2844  0.0093
    1DIPC   D2A22986   3.301  28.018   2.600 -0.0891 -0.1420  0.1257
    1DIPC   D3A22987   2.944  27.764   2.540 -0.2194  0.0754 -0.2452
    1DIPC   C4A22988   2.929  27.316   2.713 -0.1217  0.4194  0.0311
    1DIPC   C1B22989   2.270  29.026   2.639  0.1385  0.4450  0.2333
    1DIPC   D2B22990   2.346  28.876   3.117  0.0785  0.0083 -0.0005
    1DIPC   D3B22991   2.308  28.675   3.595  0.2817 -0.2087 -0.1239
    1DIPC   C4B22992   2.163  28.365   3.674 -0.0986  0.2337 -0.2369
    1DIPC   NC322993  10.390   7.441   3.502  0.2759 -0.2714  0.1948
    1DIPC   PO422994  10.758   7.608   3.537  0.2968 -0.1985 -0.2222
    1DIPC   GL122995  10.593   8.016   3.641  0.2589  0.1715  0.1345
    1DIPC   GL222996  10.821   8.268   3.624  0.1527 -0.3527  0.0602
    1DIPC   C1A22997  10.361   8.057   4.047 -0.2380  0.0357 -0.1363
    1DIPC   D2A22998   9.995   8.116   4.245  0.3755 -0.0879  0.0613
    1DIPC   D3A22999  10.163   8.368   4.499 -0.1373  0.1220  0.3879
    1DIPC   C4A23000  10.061   8.705   4.804  0.0217 -0.0071 -0.1220
    1DIPC   C1B23001  10.859   8.143   3.999 -0.1288 -0.3969 -0.1517
    1DIPC   D2B23002  10.689   8.241   4.398 -0.3868 -0.0570  0.0211
    1DIPC   D3B23003  10.928   8.021   4.716 -0.1791 -0.1028  0.7152
    1DIPC   C4B23004  10.756   7.653   4.856  0.1148 -0.3015  0.1524
    1DIPC   NC323005   9.094  19.510   2.414 -0.2344 -0.1387 -0.2739
    1DIPC   PO423006   9.507  19.647   2.335 -0.0497  0.0332 -0.3398
    1DIPC   GL123007   9.601  19.808   2.732 -0.2687  0.0454  0.1799
    1DIPC   GL223008   9.834  19.584   2.860 -0.1508 -0.4317 -0.1203
    1DIPC   C1A23009   9.464  20.004   3.133  0.1023  0.1168  0.2420
    1DIPC   D2A23010   9.695  20.310   3.444  0.1782 -0.2596 -0.1615
    1DIPC   D3A23011   9.460  20.417   3.802  0.0513 -0.2619 -0.0621
    1DIPC   C4A23012   9.298  20.137   4.059  0.0696  0.1184 -0.1740
    1DIPC   C1B23013   9.660  19.600   3.281  0.0539  0.0118  0.0536
    1DIPC   D2B23014   9.563  19.868   3.680 -0.0295 -0.0849  0.2053
    1DIPC   D3B23015   9.086  19.711   3.754 -0.0340  0.1421 -0.1623
    1DIPC   C4B23016   9.043  19.751   4.168 -0.2273  0.1053 -0.0143
    1DIPC   NC323017  27.006  18.951   3.063  0.1794  0.3555  0.1430
    1DIPC   PO423018  27.202  19.342   3.237  0.1932 -0.3212 -0.0753
    1DIPC   GL123019  27.235  19.416   3.706 -0.3801  0.2414  0.1209
    1DIPC   GL223020  27.628  19.439   3.818 -0.1455 -0.1716 -0.2400
    1DIPC   C1A23021  27.265  19.079   3.994 -0.2329 -0.1419 -0.3068
    1DIPC   D2A23022  27.103  18.621   4.068 -0.1043 -0.1157 -0.2182
    1DIPC   D3A23023  27.569  18.683   4.249 -0.1182  0.0483  0.1372
    1DIPC   C4A23024  27.533  18.376   4.636  0.2696 -0.0690  0.4461
    1DIPC   C1B23025  27.284  19.495   4.188 -0.1155 -0.0729 -0.1361
    1DIPC   D2B23026  26.898  19.320   4.376 -0.2553 -0.1252  0.4064
    1DIPC   D3B23027  26.751  19.081   4.070 -0.1425  0.0674  0.2767
    1DIPC   C4B23028  26.573  18.725   4.104 -0.2032  0.0035 -0.0770
    1DIPC   NC323029  19.724   0.057   3.287 -0.0397  0.1534  0.0133
    1DIPC   PO423030  19.682   0.492   3.453  0.2144 -0.1022 -0.1666
    1DIPC   GL123031  19.935   0.275   3.806  0.0791  0.0941  0.0769
    1DIPC   GL223032  19.888   0.007   3.875 -0.1157  0.4646 -0.0759
    1DIPC   C1A23033  20.102   0.379   4.300  0.0547 -0.2089  0.0156
    1DIPC   D2A23034  20.439   0.422   4.548  0.1200 -0.0403 -0.0138
    1DIPC   D3A23035  20.781   0.502   4.279  0.0072  0.1368  0.1309
    1DIPC   C4A23036  20.728   0.933   4.054  0.1267  0.2273  0.0645
    1DIPC   C1B23037  20.195  29.769   4.141 -0.1699 -0.2873 -0.0014
    1DIPC   D2B23038  20.402  29.707   4.502 -0.0515 -0.2811 -0.0993
    1DIPC   D3B23039  20.126  29.833   4.822 -0.1764  0.0011  0.1564
    1DIPC   C4B23040  19.919  29.513   5.111 -0.1419  0.0096  0.1493
    1DIPC   NC323041   6.539  12.294   2.058  0.1225 -0.0463 -0.3475
    1DIPC   PO423042   6.691  11.846   2.050 -0.1627 -0.1541  0.3123
    1DIPC   GL123043   6.738  12.019   2.505  0.1379 -0.2574 -0.1162
    1DIPC   GL223044   6.967  11.804   2.741  0.3371  0.0157  0.2118
    1DIPC   C1A23045   6.898  12.351   2.722 -0.0069 -0.2258  0.0222
    1DIPC   D2A23046   6.754  12.462   3.163  0.0572  0.0956 -0.0724
    1DIPC   D3A23047   6.354  12.769   3.380  0.0194  0.0430  0.2187
    1DIPC   C4A23048   6.201  12.666   3.814 -0.0422  0.0100 -0.0005
    1DIPC   C1B23049   6.675  11.957   3.158 -0.0256 -0.0305 -0.1076
    1DIPC   D2B23050   6.462  11.824   3.453  0.4596  0.1424 -0.1881
    1DIPC   D3B23051   6.514  11.636   3.903 -0.0285 -0.1532  0.0106
    1DIPC   C4B23052   6.219  11.566   4.329  0.0624 -0.0455  0.1096
    1DIPC   NC323053  25.792  26.533   2.473  0.1907 -0.2162 -0.0824
    1DIPC   PO423054  25.652  26.791   2.782  0.2792  0.0553 -0.1446
    1DIPC   GL123055  25.806  27.033   3.089 -0.1444  0.2406  0.1216
    1DIPC   GL223056  25.704  27.020   3.312 -0.0054 -0.0659  0.0418
    1DIPC   C1A23057  25.955  27.437   3.204  0.1652  0.2167 -0.0022
    1DIPC   D2A23058  25.789  27.760   3.484 -0.1030  0.1359  0.0098
    1DIPC   D3A23059  25.603  27.760   3.941 -0.2566 -0.2963 -0.1600
    1DIPC   C4A23060  25.752  28.064   4.222 -0.1952  0.0386 -0.2075
    1DIPC   C1B23061  25.603  27.249   3.633  0.1429  0.1072 -0.2820
    1DIPC   D2B23062  25.340  27.245   3.950 -0.0126  0.1658  0.0089
    1DIPC   D3B23063  25.616  27.376   4.260  0.0870 -0.1418 -0.0697
    1DIPC   C4B23064  25.622  27.636   4.561  0.2439  0.0822  0.1070
    1DIPC   NC323065   4.034  16.194   2.896 -0.0760 -0.2305  0.4391
    1DIPC   PO423066   4.027  15.959   3.287  0.0531  0.0938 -0.0811
    1DIPC   GL123067   4.162  16.104   3.702  0.0179  0.1971 -0.1359
    1DIPC   GL223068   4.070  16.421   3.736 -0.0583  0.0464  0.0803
    1DIPC   C1A23069   4.204  15.874   4.045 -0.0567  0.1313  0.0963
    1DIPC   D2A23070   4.539  15.890   4.279 -0.2702  0.2489  0.0016
    1DIPC   D3A23071   4.627  16.151   3.950  0.5483 -0.1091  0.0775
    1DIPC   C4A23072   5.013  16.213   4.119  0.0072  0.0473 -0.2569
    1DIPC   C1B23073   4.196  16.475   4.135  0.0317  0.0470  0.1128
    1DIPC   D2B23074   4.006  16.805   4.489  0.1365  0.1602  0.0156
    1DIPC   D3B23075   4.192  17.061   4.721 -0.0837  0.1296  0.0393
    1DIPC   C4B23076   4.336  16.816   5.085 -0.1173  0.0029 -0.0545
    1DIPC   NC323077  12.085  28.073   2.633  0.0153 -0.0516 -0.1569
    1DIPC   PO423078  12.469  28.198   2.999  0.0093  0.0749 -0.0922
    1DIPC   GL123079  12.528  28.172   3.404 -0.4527  0.1351 -0.2359
    1DIPC   GL223080  12.568  28.453   3.552 -0.2109  0.0244  0.2562
    1DIPC   C1A23081  12.737  27.805   3.709 -0.0426 -0.2554 -0.2596
    1DIPC   D2A23082  13.011  27.495   3.956  0.3853  0.1276 -0.0460
    1DIPC   D3A23083  13.017  27.090   4.193 -0.1616 -0.0476  0.1155
    1DIPC   C4A23084  12.800  26.969   4.585  0.1678  0.0448  0.0105
    1DIPC   C1B23085  12.776  28.495   3.949 -0.2948  0.1338 -0.2668
    1DIPC   D2B23086  12.948  28.500   4.399  0.1350  0.0498  0.0428
    1DIPC   D3B23087  12.791  28.396   4.737 -0.2346  0.1583  0.0692
    1DIPC   C4B23088  12.515  27.981   4.724  0.2085  0.0409  0.2575
    1DIPC   NC323089  23.753  23.207   2.645  0.0080 -0.0155 -0.2058
    1DIPC   PO423090  23.796  23.006   3.097 -0.2167  0.0390  0.1388
    1DIPC   GL123091  23.642  23.056   3.467 -0.0553 -0.0223 -0.1142
    1DIPC   GL223092  23.500  23.358   3.558  0.0491  0.0031  0.1185
    1DIPC   C1A23093  23.587  22.893   3.890  0.3422  0.2066  0.1135
    1DIPC   D2A23094  23.801  22.926   4.253  0.1587 -0.1315 -0.0702
    1DIPC   D3A23095  23.529  23.213   4.314 -0.0087  0.2106  0.0325
    1DIPC   C4A23096  23.144  23.109   4.474  0.2602 -0.4115  0.0926
    1DIPC   C1B23097  23.756  23.374   3.842 -0.2341 -0.1172  0.0088
    1DIPC   D2B23098  24.037  23.402   4.193 -0.2518 -0.2478 -0.0267
    1DIPC   D3B23099  24.142  23.022   3.869  0.0653  0.0858 -0.3049
    1DIPC   C4B23100  24.043  22.608   3.959  0.0002  0.2070  0.0174
    1DIPC   NC323101  27.166   8.572   2.503  0.2695 -0.0401  0.0677
    1DIPC   PO423102  27.497   8.530   2.846  0.0495  0.3304  0.1883
    1DIPC   GL123103  27.786   8.398   3.155  0.0994 -0.2210 -0.0409
    1DIPC   GL223104  27.722   8.105   3.164  0.2846  0.3327  0.0829
    1DIPC   C1A23105  27.845   8.445   3.623  0.4658  0.1963 -0.1694
    1DIPC   D2A23106  27.757   8.101   3.952 -0.0405 -0.1223  0.0723
    1DIPC   D3A23107  27.999   8.415   4.067  0.0142  0.0151  0.0779
    1DIPC   C4A23108  28.131   8.541   4.375  0.1674  0.0521  0.4005
    1DIPC   C1B23109  27.473   8.143   3.514 -0.1278  0.1945 -0.0861
    1DIPC   D2B23110  27.043   8.005   3.578 -0.3233  0.2748  0.0621
    1DIPC   D3B23111  27.228   8.156   4.033 -0.0882 -0.1036 -0.1788
    1DIPC   C4B23112  26.992   7.903   4.329  0.1908 -0.1622  0.3159
    1DIPC   NC323113  10.176  22.709   1.940 -0.2989  0.1582  0.5329
    1DIPC   PO423114  10.462  22.305   1.859  0.2536 -0.0538 -0.3597
    1DIPC   GL123115  10.700  22.188   2.251 -0.0662 -0.1814 -0.1363
    1DIPC   GL223116  11.082  22.163   2.220 -0.1101  0.1784  0.0174
    1DIPC   C1A23117  10.961  22.081   2.706  0.2765  0.1678  0.0914
    1DIPC   D2A23118  11.125  21.983   3.169 -0.0261 -0.0714 -0.4003
    1DIPC   D3A23119  11.195  21.557   2.824 -0.1579  0.3185  0.1462
    1DIPC   C4A23120  11.381  21.163   2.945 -0.0973 -0.2872 -0.1335
    1DIPC   C1B23121  11.367  22.408   2.504 -0.2716  0.1097  0.0044
    1DIPC   D2B23122  11.365  22.383   2.963  0.0623 -0.0517  0.1025
    1DIPC   D3B23123  11.565  22.822   2.947  0.0484  0.1666  0.2359
    1DIPC   C4B23124  11.432  23.192   2.656  0.0580 -0.1307  0.1322
    1DIPC   NC323125   9.063   1.173   3.389 -0.1552 -0.0100  0.0319
    1DIPC   PO423126   9.363   0.905   3.292 -0.1793  0.1211 -0.0072
    1DIPC   GL123127   9.301   0.844   3.682 -0.1670 -0.2116  0.3109
    1DIPC   GL223128   9.013   0.829   3.807 -0.1972 -0.2263  0.0129
    1DIPC   C1A23129   9.387   0.711   4.215 -0.0741  0.1648 -0.1551
    1DIPC   D2A23130   9.657   0.495   4.449  0.0102  0.0871  0.1019
    1DIPC   D3A23131   9.539   0.693   4.799  0.0538  0.0046 -0.1631
    1DIPC   C4A23132   9.452   0.464   5.101 -0.2058 -0.3467 -0.0605
    1DIPC   C1B23133   8.898   0.588   4.229 -0.2808  0.2458 -0.3162
    1DIPC   D2B23134   8.600   0.493   4.551  0.0645 -0.0008  0.0563
    1DIPC   D3B23135   8.340   0.473   4.973 -0.1226 -0.0934  0.2646
    1DIPC   C4B23136   7.865   0.714   4.953  0.0291  0.3952  0.3812
    1DIPC   NC323137  25.085   0.025   3.148 -0.1114 -0.0561 -0.2182
    1DIPC   PO423138  25.431  29.705   3.045  0.0569  0.2604 -0.1309
    1DIPC   GL123139  25.582  29.832   3.345 -0.2143 -0.3144  0.0073
    1DIPC   GL223140  25.693  29.556   3.571  0.0435  0.1602  0.0555
    1DIPC   C1A23141  25.879   0.233   3.694 -0.2401 -0.5733  0.0507
    1DIPC   D2A23142  25.810   0.335   4.145 -0.2976  0.0032  0.1684
    1DIPC   D3A23143  25.677   0.570   4.499 -0.0560 -0.1543  0.1464
    1DIPC   C4A23144  25.892   0.627   4.930 -0.1349 -0.0051  0.0390
    1DIPC   C1B23145  25.598  29.217   3.813 -0.2938 -0.0250 -0.2914
    1DIPC   D2B23146  25.405  28.871   4.148 -0.0490 -0.1213 -0.1046
    1DIPC   D3B23147  25.513  28.545   4.398  0.1698  0.2739 -0.0855
    1DIPC   C4B23148  25.711  28.267   4.739 -0.0879 -0.0261  0.2164
    1DIPC   NC323149   7.178  23.722   1.938 -0.2219 -0.2671 -0.2289
    1DIPC   PO423150   7.414  23.874   2.247 -0.1924 -0.1057  0.2613
    1DIPC   GL123151   7.423  23.697   2.578  0.0987  0.0958  0.2839
    1DIPC   GL223152   7.445  23.336   2.416  0.1150 -0.1007  0.0853
    1DIPC   C1A23153   7.723  23.804   2.872 -0.0612  0.0340 -0.1902
    1DIPC   D2A23154   7.970  23.733   3.301  0.0368 -0.1228  0.1540
    1DIPC   D3A23155   7.869  23.933   3.747  0.2384  0.2128  0.0067
    1DIPC   C4A23156   8.276  24.048   3.886 -0.1214  0.2305  0.1328
    1DIPC   C1B23157   7.026  23.297   2.572  0.2290  0.0978 -0.1912
    1DIPC   D2B23158   6.720  23.184   2.985 -0.1879  0.1038 -0.1567
    1DIPC   D3B23159   6.990  23.414   3.129 -0.1177  0.1319 -0.3635
    1DIPC   C4B23160   6.933  23.434   3.682 -0.0067  0.0119 -0.2180
    1DIPC   NC323161   8.808   5.102   3.392  0.0200 -0.1682  0.0941
    1DIPC   PO423162   9.044   4.854   3.716 -0.1742 -0.0775  0.2716
    1DIPC   GL123163   8.700   5.067   3.908  0.2644 -0.2220  0.2969
    1DIPC   GL223164   8.825   5.315   3.951  0.1634 -0.1509 -0.1273
    1DIPC   C1A23165   8.384   5.058   4.247 -0.2809  0.2350 -0.1725
    1DIPC   D2A23166   8.043   4.878   4.238  0.0185 -0.0156 -0.0388
    1DIPC   D3A23167   7.770   4.648   3.967 -0.2200 -0.3935 -0.0273
    1DIPC   C4A23168   7.441   4.489   4.188  0.0871  0.2624  0.2008
    1DIPC   C1B23169   8.775   5.142   4.455 -0.0060 -0.0406 -0.0569
    1DIPC   D2B23170   8.449   4.936   4.706 -0.0809  0.0486  0.0932
    1DIPC   D3B23171   8.570   5.475   4.836 -0.0600  0.1847 -0.0654
    1DIPC   C4B23172   8.381   5.704   5.119 -0.0082  0.2334 -0.0743
    1DIPC   NC323173   6.750   2.209   2.755 -0.2071  0.0513  0.0745
    1DIPC   PO423174   6.681   1.860   2.927  0.0794 -0.1123  0.1631
    1DIPC   GL123175   6.388   1.818   3.244 -0.2142 -0.2237  0.1965
    1DIPC   GL223176   6.133   2.047   3.101 -0.0250 -0.3816 -0.0623
    1DIPC   C1A23177   6.226   1.886   3.610 -0.2438 -0.1043  0.0457
    1DIPC   D2A23178   6.147   2.008   4.003 -0.1862  0.0705 -0.0286
    1DIPC   D3A23179   6.153   1.691   4.347 -0.0444 -0.0778  0.1098
    1DIPC   C4A23180   6.418   1.828   4.712 -0.0883 -0.1372 -0.3023
    1DIPC   C1B23181   6.431   2.363   3.452 -0.1035 -0.0701 -0.0698
    1DIPC   D2B23182   6.663   2.373   3.868 -0.0137 -0.2725 -0.0589
    1DIPC   D3B23183   6.541   2.199   4.281  0.1950 -0.2375  0.0586
    1DIPC   C4B23184   6.148   2.226   4.507  0.0904  0.3274  0.1342
    1DIPC   NC323185  29.832   7.528   2.799 -0.1224  0.1103 -0.0867
    1DIPC   PO423186   0.019   7.094   2.880 -0.0789  0.2342  0.0558
    1DIPC   GL123187  29.776   7.159   3.283  0.0066  0.0918 -0.0181
    1DIPC   GL223188  29.452   6.922   3.419 -0.0797  0.2985 -0.1469
    1DIPC   C1A23189  29.703   7.135   3.786  0.0880  0.1709 -0.2227
    1DIPC   D2A23190   0.241   7.094   4.063 -0.3458 -0.0319 -0.3320
    1DIPC   D3A23191   0.262   6.901   4.532 -0.4198  0.2463 -0.0984
    1DIPC   C4A23192   0.663   7.046   4.727  0.0899 -0.1201  0.1079
    1DIPC   C1B23193  29.540   6.479   3.519  0.1651 -0.0878  0.2269
    1DIPC   D2B23194  29.560   6.457   3.953  0.0432  0.3829  0.1926
    1DIPC   D3B23195  29.391   6.798   3.879  0.0347  0.1394 -0.1353
    1DIPC   C4B23196  29.032   6.835   4.250 -0.0916  0.1886 -0.0330
    1DIPC   NC323197  17.264  23.028   0.881 -0.4495 -0.0083 -0.1273
    1DIPC   PO423198  17.300  22.984   1.304 -0.1979 -0.4971  0.0933
    1DIPC   GL123199  17.017  23.070   1.683  0.0388  0.1128  0.3717
    1DIPC   GL223200  17.057  23.390   1.730 -0.0426 -0.1228 -0.1337
    1DIPC   C1A23201  17.079  23.104   2.135 -0.0793  0.0159  0.2566
    1DIPC   D2A23202  17.071  23.032   2.513  0.0231 -0.1150 -0.1578
    1DIPC   D3A23203  16.946  22.724   2.709 -0.1294 -0.2312 -0.0427
    1DIPC   C4A23204  16.841  22.359   2.410 -0.1604  0.1391  0.3102
    1DIPC   C1B23205  17.054  23.743   2.030  0.0698  0.0825  0.1928
    1DIPC   D2B23206  16.780  23.998   2.376  0.0918  0.0720 -0.3272
    1DIPC   D3B23207  17.057  24.250   2.262  0.2869 -0.2031 -0.2731
    1DIPC   C4B23208  17.361  24.378   2.467  0.2603 -0.1908  0.1272
    1DIPC   NC323209  23.902  27.961   3.456  0.0220 -0.0821  0.1147
    1DIPC   PO423210  23.512  28.198   3.437  0.3432  0.1666  0.0254
    1DIPC   GL123211  23.668  28.115   3.865  0.4272 -0.0489  0.0419
    1DIPC   GL223212  23.601  28.292   4.054 -0.1031  0.1799 -0.1508
    1DIPC   C1A23213  23.867  27.942   4.388 -0.2482  0.0816 -0.2593
    1DIPC   D2A23214  24.106  27.857   4.764  0.2833  0.1472  0.1533
    1DIPC   D3A23215  23.851  27.485   4.921  0.1672  0.0383  0.0704
    1DIPC   C4A23216  23.434  27.430   5.017  0.0234 -0.0870  0.4513
    1DIPC   C1B23217  23.970  28.478   4.216  0.0154 -0.2267 -0.0107
    1DIPC   D2B23218  24.049  28.812   4.526  0.1234  0.1136  0.0153
    1DIPC   D3B23219  24.425  28.804   4.428 -0.3250  0.1000 -0.1954
    1DIPC   C4B23220  24.654  29.005   4.774  0.1536  0.0738  0.0386
    1DIPC   NC323221  24.470  20.767   2.614 -0.0284 -0.1860  0.1291
    1DIPC   PO423222  24.249  20.627   2.890  0.2097 -0.0238 -0.0363
    1DIPC   GL123223  24.390  20.512   3.242  0.1139  0.0371 -0.1314
    1DIPC   GL223224  24.529  20.194   3.431 -0.0068 -0.0491  0.0500
    1DIPC   C1A23225  24.164  20.459   3.637 -0.1127 -0.2079 -0.1566
    1DIPC   D2A23226  23.914  20.710   3.908  0.0376 -0.4037 -0.0038
    1DIPC   D3A23227  23.883  20.981   4.293  0.0900  0.1187 -0.2366
    1DIPC   C4A23228  23.628  20.853   4.553  0.3912 -0.3098 -0.0473
    1DIPC   C1B23229  24.680  20.412   3.846  0.1296  0.0241  0.2207
    1DIPC   D2B23230  24.810  20.460   4.246 -0.3466  0.4159  0.0223
    1DIPC   D3B23231  24.387  20.232   4.212  0.0105 -0.1050 -0.0243
    1DIPC   C4B23232  23.959  20.471   4.375  0.0058  0.0858 -0.0209
    1DIPC   NC323233  19.921  21.523   1.623 -0.1697  0.1190  0.1025
    1DIPC   PO423234  19.446  21.426   1.600  0.2828 -0.0332 -0.0449
    1DIPC   GL123235  19.311  21.553   2.064 -0.1400 -0.1312  0.1872
    1DIPC   GL223236  19.030  21.669   2.029  0.1780 -0.0702  0.1306
    1DIPC   C1A23237  19.271  21.574   2.573 -0.0524 -0.2196  0.0282
    1DIPC   D2A23238  19.046  21.631   2.859 -0.3105 -0.0058  0.0717
    1DIPC   D3A23239  18.807  21.804   3.202  0.2204 -0.1433 -0.3193
    1DIPC   C4A23240  18.743  21.637   3.563 -0.0638  0.1565 -0.2005
    1DIPC   C1B23241  18.886  21.850   2.383 -0.2122 -0.1414  0.1992
    1DIPC   D2B23242  18.846  22.049   2.753 -0.1359  0.2521 -0.4028
    1DIPC   D3B23243  19.127  22.249   3.103  0.2456  0.1631 -0.2140
    1DIPC   C4B23244  19.054  22.050   3.530 -0.0836 -0.2696 -0.1282
    1DIPC   NC323245  24.690  24.260   3.060  0.1630  0.0749  0.1268
    1DIPC   PO423246  25.028  24.235   3.312 -0.0359 -0.0482  0.0696
    1DIPC   GL123247  24.734  24.066   3.667 -0.2671  0.2789  0.0039
    1DIPC   GL223248  24.458  24.163   3.656 -0.2453  0.0122  0.0075
    1DIPC   C1A23249  24.719  24.015   4.024 -0.2294  0.4439  0.0449
    1DIPC   D2A23250  24.624  24.229   4.341  0.1771 -0.4864 -0.0544
    1DIPC   D3A23251  24.940  24.509   4.386 -0.1728  0.2625 -0.0925
    1DIPC   C4A23252  25.200  24.483   4.740 -0.1977  0.1074  0.0377
    1DIPC   C1B23253  24.270  24.246   3.960  0.3652  0.1391 -0.2269
    1DIPC   D2B23254  24.362  24.598   4.148 -0.0384 -0.0651 -0.2906
    1DIPC   D3B23255  24.099  24.886   4.430 -0.3257 -0.2071 -0.0110
    1DIPC   C4B23256  23.761  25.093   4.690  0.2927 -0.0180  0.0433
    1DIPC   NC323257   7.515  20.570   1.983 -0.0079  0.0215  0.0285
    1DIPC   PO423258   7.229  20.945   2.156 -0.0950  0.1925 -0.0497
    1DIPC   GL123259   7.287  21.127   2.606  0.0952 -0.3838  0.0044
    1DIPC   GL223260   7.588  21.202   2.820 -0.1447  0.1262  0.1071
    1DIPC   C1A23261   7.122  21.001   2.970  0.0147  0.2147 -0.1417
    1DIPC   D2A23262   7.189  20.912   3.456 -0.1186  0.0744 -0.0237
    1DIPC   D3A23263   7.199  20.534   3.461  0.0083  0.1200  0.0005
    1DIPC   C4A23264   7.390  20.259   3.672  0.1400 -0.5329 -0.2597
    1DIPC   C1B23265   7.218  21.459   3.180 -0.0473  0.1475  0.2477
    1DIPC   D2B23266   6.980  21.485   3.634  0.0258 -0.0389  0.1895
    1DIPC   D3B23267   6.944  21.783   3.983 -0.0481  0.1466 -0.2016
    1DIPC   C4B23268   6.957  22.233   4.088 -0.0776  0.2225 -0.1138
    1DIPC   NC323269  10.152  15.787   2.701 -0.2418  0.3087  0.2561
    1DIPC   PO423270   9.804  15.907   2.941 -0.0179  0.1985  0.2862
    1DIPC   GL123271   9.954  15.836   3.372  0.1172 -0.0233  0.0680
    1DIPC   GL223272  10.195  16.085   3.545  0.3509  0.0809 -0.0606
    1DIPC   C1A23273   9.862  15.807   3.783  0.2913 -0.0084 -0.0895
    1DIPC   D2A23274   9.391  15.698   3.938 -0.2372  0.1482  0.0283
    1DIPC   D3A23275   9.300  15.771   4.335 -0.1645  0.1825  0.1965
    1DIPC   C4A23276   8.868  15.671   4.420  0.1725 -0.0130  0.1384
    1DIPC   C1B23277  10.603  15.944   3.490 -0.0321  0.1106 -0.0654
    1DIPC   D2B23278  10.857  15.725   3.657  0.2923 -0.3043  0.1658
    1DIPC   D3B23279  10.643  15.644   3.943 -0.3315 -0.0295  0.0645
    1DIPC   C4B23280  10.305  15.571   3.691 -0.2409  0.0068 -0.5045
    1DIPC   NC323281   2.894  25.837   1.578  0.1727 -0.3103 -0.0722
    1DIPC   PO423282   2.774  26.020   1.991  0.1242 -0.1235  0.0269
    1DIPC   GL123283   2.649  26.050   2.310  0.2357 -0.1204  0.2116
    1DIPC   GL223284   2.744  25.692   2.474 -0.1112 -0.4436 -0.2417
    1DIPC   C1A23285   2.450  26.366   2.686  0.3129 -0.2354 -0.0466
    1DIPC   D2A23286   2.208  26.660   2.963 -0.1620 -0.0384 -0.0924
    1DIPC   D3A23287   2.207  26.888   2.525  0.1228 -0.1803  0.3220
    1DIPC   C4A23288   2.697  26.981   2.346 -0.2258 -0.0655  0.0922
    1DIPC   C1B23289   2.928  26.080   2.769 -0.0212  0.0226  0.0613
    1DIPC   D2B23290   2.721  26.220   3.137  0.1539 -0.2524  0.0671
    1DIPC   D3B23291   2.277  26.156   3.216 -0.0126  0.0812  0.0066
    1DIPC   C4B23292   2.078  26.413   3.608  0.3297 -0.1215  0.0026
    1DIPC   NC323293  10.183  11.722   2.901  0.2739  0.0607 -0.2003
    1DIPC   PO423294  10.498  11.401   2.958  0.1399 -0.3132 -0.1190
    1DIPC   GL123295  10.495  11.676   3.329 -0.0651 -0.1526  0.0443
    1DIPC   GL223296  10.696  11.550   3.448  0.2402  0.0591  0.1910
    1DIPC   C1A23297  10.191  11.915   3.617  0.3881  0.2904  0.2122
    1DIPC   D2A23298   9.766  11.864   3.916 -0.1615 -0.0087  0.0729
    1DIPC   D3A23299   9.949  11.601   4.202 -0.3168  0.0443 -0.1470
    1DIPC   C4A23300   9.919  11.417   4.611 -0.0687 -0.3814  0.1514
    1DIPC   C1B23301  10.688  11.907   3.737  0.3213  0.0001  0.0043
    1DIPC   D2B23302  10.746  12.131   4.113 -0.0781 -0.0583  0.0540
    1DIPC   D3B23303  10.348  12.264   3.942 -0.2123  0.4499  0.0920
    1DIPC   C4B23304  10.230  11.984   4.113 -0.0425  0.1948 -0.0152
    1DIPC   NC323305   8.930   8.373   2.191  0.3244 -0.2041 -0.0749
    1DIPC   PO423306   9.405   8.190   2.410 -0.1330 -0.1315  0.1271
    1DIPC   GL123307   9.334   8.483   2.706 -0.2626  0.1036  0.2100
    1DIPC   GL223308   9.499   8.313   3.063 -0.0963  0.0463 -0.3934
    1DIPC   C1A23309   9.260   8.725   3.041  0.1776 -0.1512 -0.0390
    1DIPC   D2A23310   9.295   8.850   3.477 -0.1449 -0.0890  0.3557
    1DIPC   D3A23311   9.592   9.193   3.356  0.0059 -0.0945  0.3044
    1DIPC   C4A23312   9.965   9.230   3.112 -0.1654  0.1116  0.2050
    1DIPC   C1B23313   9.852   8.218   3.202 -0.0151  0.0087 -0.2772
    1DIPC   D2B23314  10.017   8.144   3.707 -0.2083  0.0920 -0.2153
    1DIPC   D3B23315   9.944   7.676   3.784  0.0188  0.2622  0.3826
    1DIPC   C4B23316  10.152   7.554   4.108  0.2359 -0.2884 -0.0218
    1DIPC   NC323317  14.620  19.911   1.721  0.2093  0.0861 -0.2493
    1DIPC   PO423318  14.211  19.708   1.722 -0.0925 -0.0895 -0.1818
    1DIPC   GL123319  14.233  19.750   2.164  0.0949 -0.1771 -0.1832
    1DIPC   GL223320  14.470  19.503   2.395  0.1259  0.1204  0.1215
    1DIPC   C1A23321  14.174  19.863   2.555 -0.1239 -0.1485 -0.1384
    1DIPC   D2A23322  14.266  19.873   3.029 -0.1226 -0.1063 -0.0447
    1DIPC   D3A23323  13.884  19.812   3.251 -0.0159  0.1699 -0.0952
    1DIPC   C4A23324  13.619  20.135   3.268  0.0555  0.1226 -0.0417
    1DIPC   C1B23325  14.530  19.478   2.828 -0.2931  0.0017  0.0489
    1DIPC   D2B23326  14.527  19.480   3.223  0.0564  0.0431  0.1014
    1DIPC   D3B23327  14.221  19.363   3.594  0.3390  0.1888  0.0419
    1DIPC   C4B23328  13.771  19.168   3.466 -0.1511  0.0661  0.1638
    1DIPC   NC323329   6.972  29.131   2.686  0.0548  0.0008 -0.0434
    1DIPC   PO423330   6.989  28.657   2.477  0.0665  0.0306  0.1036
    1DIPC   GL123331   6.742  28.637   2.790  0.0346  0.3097 -0.1583
    1DIPC   GL223332   6.655  28.246   2.669 -0.1084  0.0382 -0.1992
    1DIPC   C1A23333   6.622  28.689   3.311 -0.0133  0.2643 -0.0405
    1DIPC   D2A23334   6.359  28.373   3.666 -0.0379  0.0017 -0.1255
    1DIPC   D3A23335   6.220  28.655   4.036  0.0893 -0.0236 -0.3512
    1DIPC   C4A23336   6.280  28.899   4.419 -0.2466  0.0001  0.0021
    1DIPC   C1B23337   6.511  28.143   3.056  0.0657  0.2834 -0.0722
    1DIPC   D2B23338   6.652  27.950   3.477  0.0265 -0.0407 -0.2761
    1DIPC   D3B23339   6.305  27.869   3.672 -0.3877 -0.0870 -0.0399
    1DIPC   C4B23340   6.258  27.782   4.089  0.1146 -0.2366 -0.1659
    1DIPC   NC323341  26.942  21.126   2.807 -0.0940  0.2062 -0.0694
    1DIPC   PO423342  27.182  21.297   3.177  0.1046 -0.0277  0.1592
    1DIPC   GL123343  27.047  21.602   3.495  0.1730 -0.0297 -0.2700
    1DIPC   GL223344  26.706  21.656   3.513 -0.1401  0.0744 -0.0808
    1DIPC   C1A23345  27.171  21.668   4.033 -0.2304  0.0586  0.1225
    1DIPC   D2A23346  27.039  21.633   4.456 -0.0048 -0.2296 -0.2354
    1DIPC   D3A23347  26.738  21.361   4.160 -0.0472  0.1466 -0.5332
    1DIPC   C4A23348  26.833  21.225   3.770  0.4753 -0.0273  0.1944
    1DIPC   C1B23349  26.734  21.770   3.816  0.1791  0.0520  0.0818
    1DIPC   D2B23350  26.696  22.176   3.873 -0.1100 -0.0238 -0.0417
    1DIPC   D3B23351  26.909  22.109   4.246 -0.1618  0.0431 -0.2684
    1DIPC   C4B23352  26.746  22.039   4.688  0.0731 -0.0004 -0.0023
    1DIPC   NC323353  11.554  25.560   2.229 -0.1010  0.2788  0.1826
    1DIPC   PO423354  11.413  25.119   2.347  0.1818  0.2526  0.0378
    1DIPC   GL123355  11.220  24.869   2.559 -0.2326  0.0888 -0.0938
    1DIPC   GL223356  11.060  25.117   2.693 -0.0624 -0.0679 -0.5842
    1DIPC   C1A23357  11.172  24.578   2.934 -0.0259 -0.0845  0.1982
    1DIPC   D2A23358  10.865  24.395   3.186 -0.3979 -0.0610 -0.1039
    1DIPC   D3A23359  10.970  24.011   3.541 -0.0038 -0.2556  0.0223
    1DIPC   C4A23360  10.615  23.975   3.867  0.0971  0.1620 -0.0689
    1DIPC   C1B23361  11.417  25.239   2.977 -0.2021 -0.1590 -0.4984
    1DIPC   D2B23362  11.588  25.549   3.176 -0.0262 -0.1192 -0.0167
    1DIPC   D3B23363  11.682  25.848   2.946 -0.3219 -0.1191 -0.0130
    1DIPC   C4B23364  12.072  26.054   3.069  0.0522 -0.2905  0.1181
    1DIPC   NC323365   7.717  24.450   2.072 -0.2266 -0.0664  0.0049
    1DIPC   PO423366   7.962  24.842   2.224 -0.2561 -0.0369  0.0933
    1DIPC   GL123367   7.899  24.690   2.576 -0.0734 -0.0273 -0.1622
    1DIPC   GL223368   8.008  24.946   2.818  0.1196 -0.3754 -0.2464
    1DIPC   C1A23369   7.888  24.328   2.893  0.0520  0.1036 -0.0357
    1DIPC   D2A23370   8.041  24.260   3.290 -0.1229  0.0562 -0.0004
    1DIPC   D3A23371   7.627  24.152   3.372 -0.1561  0.1297  0.0751
    1DIPC   C4A23372   7.351  24.187   2.938  0.0427  0.0912  0.0863
    1DIPC   C1B23373   8.301  24.642   2.928 -0.0520  0.0367 -0.2177
    1DIPC   D2B23374   8.549  24.344   3.106  0.5503  0.0396  0.0417
    1DIPC   D3B23375   8.500  24.111   3.465 -0.4974  0.1650 -0.0778
    1DIPC   C4B23376   8.737  24.086   3.738 -0.2026  0.0278  0.2160
    1DIPC   NC323377  15.385   1.631   4.050 -0.2227  0.0607  0.0597
    1DIPC   PO423378  15.633   1.899   4.318  0.4651  0.3684  0.1225
    1DIPC   GL123379  15.544   1.768   4.720  0.0351  0.2497  0.1275
    1DIPC   GL223380  15.768   1.718   4.889 -0.2130 -0.3793 -0.1962
    1DIPC   C1A23381  15.251   1.544   5.018  0.2083 -0.1295  0.2396
    1DIPC   D2A23382  15.137   1.485   5.481  0.3201  0.1251 -0.0781
    1DIPC   D3A23383  14.756   1.236   5.621 -0.0027  0.0197 -0.0562
    1DIPC   C4A23384  14.300   1.344   5.652  0.0680 -0.0822 -0.1967
    1DIPC   C1B23385  15.821   1.514   5.234 -0.0857 -0.1356 -0.0757
    1DIPC   D2B23386  15.882   1.207   5.519 -0.2945  0.0788 -0.1309
    1DIPC   D3B23387  16.032   1.283   5.906  0.1820  0.3543 -0.2065
    1DIPC   C4B23388  16.454   1.260   5.974 -0.0190  0.0673 -0.2504
    1DIPC   NC323389  27.675   1.649   2.747 -0.1928 -0.2323  0.4707
    1DIPC   PO423390  27.448   1.279   3.017  0.3069  0.0147  0.1711
    1DIPC   GL123391  27.339   1.270   3.417  0.0238 -0.0725  0.0771
    1DIPC   GL223392  27.626   1.350   3.609 -0.1127 -0.0041  0.2463
    1DIPC   C1A23393  27.111   1.317   3.748 -0.2008 -0.2213 -0.0629
    1DIPC   D2A23394  27.213   1.370   4.137 -0.2051  0.1434  0.1738
    1DIPC   D3A23395  26.920   1.045   4.446 -0.1857  0.2141 -0.1981
    1DIPC   C4A23396  27.030   0.658   4.420 -0.0198  0.3388 -0.0644
    1DIPC   C1B23397  27.719   1.751   3.884  0.2262  0.4717  0.0715
    1DIPC   D2B23398  27.748   1.877   4.325  0.0367  0.0137  0.0420
    1DIPC   D3B23399  28.167   1.690   4.339 -0.0880  0.0843  0.3220
    1DIPC   C4B23400  28.014   1.667   4.753  0.1555  0.1406 -0.1041
    1DIPC   NC323401   7.307  10.102   3.093 -0.0404  0.2911  0.1543
    1DIPC   PO423402   6.938   9.824   3.147  0.0690 -0.2052  0.2383
    1DIPC   GL123403   6.900   9.953   3.541  0.0144 -0.0237 -0.2560
    1DIPC   GL223404   6.775  10.100   3.519  0.2990  0.2054 -0.1682
    1DIPC   C1A23405   6.839  10.002   4.034 -0.1972 -0.1160  0.0158
    1DIPC   D2A23406   6.826  10.049   4.493  0.1265  0.0376  0.1031
    1DIPC   D3A23407   6.815   9.658   4.650  0.1160 -0.2647 -0.1307
    1DIPC   C4A23408   6.444   9.385   4.624  0.1668  0.0051  0.0088
    1DIPC   C1B23409   6.638  10.448   3.810 -0.0188 -0.1490  0.2942
    1DIPC   D2B23410   6.445  10.540   4.166 -0.1014  0.0881 -0.1214
    1DIPC   D3B23411   6.421  10.522   4.651  0.0083  0.1098  0.1863
    1DIPC   C4B23412   6.032  10.390   4.788  0.2505 -0.0762  0.0724
    1DIPC   NC323413   4.574  19.408   2.674  0.0441  0.2210  0.0351
    1DIPC   PO423414   4.968  19.603   2.526  0.2081  0.1417  0.2798
    1DIPC   GL123415   4.969  19.683   2.938  0.4872  0.1311 -0.0653
    1DIPC   GL223416   4.669  19.812   3.104 -0.1680 -0.0111  0.3571
    1DIPC   C1A23417   5.017  19.806   3.449  0.2045  0.3590 -0.0330
    1DIPC   D2A23418   4.797  20.082   3.761  0.2003 -0.0681 -0.0596
    1DIPC   D3A23419   4.727  20.203   3.385  0.0242 -0.0314  0.0622
    1DIPC   C4A23420   4.807  20.683   3.235  0.1339  0.2097  0.0428
    1DIPC   C1B23421   4.542  19.629   3.559 -0.1565 -0.2494 -0.2012
    1DIPC   D2B23422   4.397  19.796   3.978  0.2357 -0.2611 -0.1376
    1DIPC   D3B23423   4.685  20.038   4.278 -0.1111  0.0963  0.1258
    1DIPC   C4B23424   4.655  20.401   4.304 -0.2480  0.0292  0.2877
    1DIPC   NC323425  23.251  25.597   2.908 -0.1200  0.2597 -0.0083
    1DIPC   PO423426  22.784  25.801   2.990 -0.3311 -0.0896  0.2948
    1DIPC   GL123427  22.768  25.505   3.334 -0.4205 -0.5763  0.0154
    1DIPC   GL223428  22.488  25.197   3.183  0.7253 -0.3161 -0.0641
    1DIPC   C1A23429  22.447  25.775   3.574 -0.3102 -0.1580  0.1861
    1DIPC   D2A23430  22.350  26.230   3.507 -0.0562 -0.1740 -0.0656
    1DIPC   D3A23431  22.709  26.529   3.442  0.1588  0.0045 -0.1022
    1DIPC   C4A23432  23.156  26.298   3.427 -0.1534 -0.3040 -0.0508
    1DIPC   C1B23433  22.454  25.183   3.556 -0.1305 -0.0519  0.1925
    1DIPC   D2B23434  22.472  25.038   3.931  0.2716  0.0276  0.0847
    1DIPC   D3B23435  22.842  25.373   3.844 -0.1200  0.0745  0.1164
    1DIPC   C4B23436  23.028  25.662   4.143  0.1742  0.1875  0.0588
    1DIPC   NC323437  16.142  26.603   2.349 -0.0720 -0.3120 -0.1711
    1DIPC   PO423438  15.972  26.475   2.735  0.1483  0.0184 -0.1198
    1DIPC   GL123439  15.914  26.427   3.066  0.2009 -0.1662  0.0024
    1DIPC   GL223440  15.970  26.634   3.339 -0.2163  0.2294 -0.0956
    1DIPC   C1A23441  15.854  26.170   3.420  0.2559  0.0406  0.1687
    1DIPC   D2A23442  16.132  26.130   3.729  0.5360  0.0623  0.0017
    1DIPC   D3A23443  16.634  26.253   3.822 -0.0030  0.0174 -0.2013
    1DIPC   C4A23444  16.619  26.334   4.155 -0.0073 -0.0052 -0.0646
    1DIPC   C1B23445  15.909  26.585   3.767  0.0411  0.3534 -0.0283
    1DIPC   D2B23446  15.645  26.305   4.010  0.3331  0.1225  0.0403
    1DIPC   D3B23447  15.929  26.496   4.250 -0.1271 -0.2012  0.0750
    1DIPC   C4B23448  16.273  26.681   4.080  0.0184 -0.0446 -0.1921
    1DIPC   NC323449  25.814   8.488   2.822 -0.2638 -0.3720  0.3152
    1DIPC   PO423450  26.029   8.947   2.851  0.3449 -0.0372 -0.1494
    1DIPC   GL123451  25.918   9.029   3.227  0.4065  0.1250  0.0899
    1DIPC   GL223452  25.829   8.728   3.279  0.2556 -0.1291  0.0082
    1DIPC   C1A23453  25.997   9.177   3.594 -0.4201  0.1918  0.1059
    1DIPC   D2A23454  26.183   9.047   3.960 -0.0060  0.1603  0.1980
    1DIPC   D3A23455  25.940   8.651   4.164  0.1762  0.1541 -0.0683
    1DIPC   C4A23456  26.211   8.295   4.304  0.3195 -0.2505  0.0205
    1DIPC   C1B23457  26.150   8.673   3.493 -0.2019 -0.3351  0.1950
    1DIPC   D2B23458  26.321   8.538   3.808  0.1536 -0.3508  0.0552
    1DIPC   D3B23459  26.504   8.717   4.146 -0.2238 -0.1903  0.0690
    1DIPC   C4B23460  26.245   8.938   4.468 -0.0150 -0.1328  0.2134
    1DIPC   NC323461  27.638  20.003   2.887 -0.0490  0.1718 -0.0535
    1DIPC   PO423462  27.846  19.688   2.601  0.1007 -0.0759 -0.0368
    1DIPC   GL123463  28.007  19.756   3.051  0.1741  0.1776  0.0117
    1DIPC   GL223464  28.157  19.485   3.258  0.1210 -0.2934  0.2153
    1DIPC   C1A23465  27.905  19.868   3.537 -0.3243  0.4205  0.0241
    1DIPC   D2A23466  27.832  19.953   3.996 -0.1489 -0.0670 -0.2956
    1DIPC   D3A23467  27.698  19.689   4.249 -0.0521  0.1382  0.2594
    1DIPC   C4A23468  27.814  19.670   4.661  0.0192 -0.2952 -0.3856
    1DIPC   C1B23469  28.549  19.480   3.476 -0.1366  0.2234 -0.0837
    1DIPC   D2B23470  28.566  19.159   3.734 -0.0376 -0.3828 -0.1298
    1DIPC   D3B23471  28.105  19.457   3.850 -0.1748 -0.1079  0.0735
    1DIPC   C4B23472  28.194  19.636   4.251 -0.1562 -0.0865  0.1840
    1DIPC   NC323473   1.865  14.391   2.758 -0.0425  0.1781 -0.0751
    1DIPC   PO423474   2.270  14.143   2.668  0.3533 -0.0619  0.0430
    1DIPC   GL123475   2.073  14.135   3.164  0.1532  0.1642 -0.2784
    1DIPC   GL223476   1.758  13.990   3.142  0.1622 -0.1349 -0.0095
    1DIPC   C1A23477   2.002  14.384   3.406 -0.0057 -0.1255  0.0987
    1DIPC   D2A23478   1.849  14.444   3.844 -0.0258 -0.0358  0.0135
    1DIPC   D3A23479   2.035  14.151   4.105 -0.0368 -0.2658 -0.3411
    1DIPC   C4A23480   2.181  14.275   4.543 -0.0144 -0.1918  0.1046
    1DIPC   C1B23481   1.449  13.887   3.451 -0.1400  0.2088 -0.0112
    1DIPC   D2B23482   1.450  13.611   3.787 -0.3096 -0.2703  0.1028
    1DIPC   D3B23483   1.778  13.709   4.119 -0.0949 -0.2994  0.1089
    1DIPC   C4B23484   1.866  13.326   4.445 -0.1874  0.1839  0.1697
    1DIPC   NC323485  23.237  18.722   1.687  0.1129 -0.0048 -0.1619
    1DIPC   PO423486  23.161  18.944   2.102 -0.3620 -0.1465  0.3676
    1DIPC   GL123487  23.182  19.009   2.529 -0.2799  0.0249  0.0560
    1DIPC   GL223488  23.432  18.779   2.592 -0.0445 -0.0597  0.2828
    1DIPC   C1A23489  22.915  19.043   2.789  0.2663 -0.0085 -0.0237
    1DIPC   D2A23490  22.695  18.879   3.169  0.0128  0.2804  0.0680
    1DIPC   D3A23491  22.928  18.810   3.500 -0.0648 -0.3311  0.2714
    1DIPC   C4A23492  22.742  18.779   3.955 -0.1654 -0.1171  0.3301
    1DIPC   C1B23493  23.265  18.299   2.768  0.4314 -0.1070 -0.1275
    1DIPC   D2B23494  23.032  17.951   3.029  0.1821  0.0288  0.1939
    1DIPC   D3B23495  23.107  17.535   3.181  0.1810  0.1057  0.0896
    1DIPC   C4B23496  23.460  17.415   3.049 -0.0073 -0.0886  0.1087
    1DIPC   NC323497   8.074   5.511   2.782  0.0649  0.1835 -0.1896
    1DIPC   PO423498   7.955   5.814   2.951  0.2779  0.0716 -0.1194
    1DIPC   GL123499   7.833   5.739   3.289  0.4744 -0.0529 -0.0954
    1DIPC   GL223500   7.875   6.020   3.493  0.0127  0.0548  0.0872
    1DIPC   C1A23501   7.850   5.444   3.615  0.3941 -0.1561  0.2413
    1DIPC   D2A23502   7.710   5.140   3.958  0.0420  0.0824 -0.1228
    1DIPC   D3A23503   7.852   5.378   4.230 -0.0008  0.0504 -0.0542
    1DIPC   C4A23504   7.729   5.747   3.947  0.0666 -0.0676  0.1536
    1DIPC   C1B23505   8.289   6.003   3.601  0.2616 -0.0970  0.2313
    1DIPC   D2B23506   8.697   5.741   3.690 -0.2611 -0.2037  0.2252
    1DIPC   D3B23507   8.793   5.771   4.104 -0.0871 -0.1872 -0.1924
    1DIPC   C4B23508   8.520   5.616   4.360 -0.0327 -0.1201 -0.1444
    1DIPC   NC323509  25.859   1.209   3.281  0.1793  0.2987 -0.0252
    1DIPC   PO423510  26.194   0.736   3.107  0.1495  0.1266  0.0401
    1DIPC   GL123511  26.226   0.504   3.439 -0.1396  0.0557 -0.3751
    1DIPC   GL223512  26.310   0.241   3.416 -0.1170  0.1170  0.1002
    1DIPC   C1A23513  26.407   0.681   3.783 -0.0989  0.0929  0.0035
    1DIPC   D2A23514  26.821   0.890   3.966 -0.0157 -0.0788  0.0119
    1DIPC   D3A23515  26.816   1.002   3.485 -0.1162 -0.2475  0.0210
    1DIPC   C4A23516  26.719   1.562   3.478 -0.2041 -0.2417 -0.2541
    1DIPC   C1B23517  26.312   0.227   3.921  0.2659 -0.0942 -0.0134
    1DIPC   D2B23518  26.251   0.506   4.275 -0.0923 -0.1516  0.0496
    1DIPC   D3B23519  26.407   0.879   4.483 -0.0746  0.1492 -0.4044
    1DIPC   C4B23520  26.747   0.790   4.840 -0.0547 -0.2609  0.0517
    1DIPC   NC323521  12.507  18.833   2.842 -0.1765 -0.1914 -0.4930
    1DIPC   PO423522  12.206  18.983   2.478 -0.0324 -0.0212 -0.0436
    1DIPC   GL123523  12.184  19.147   2.939  0.0963 -0.0380  0.1523
    1DIPC   GL223524  12.111  18.940   3.137  0.0270  0.2715 -0.2711
    1DIPC   C1A23525  12.107  19.437   3.313  0.4760 -0.2092  0.1626
    1DIPC   D2A23526  11.938  19.395   3.711 -0.0351 -0.0149  0.1235
    1DIPC   D3A23527  12.354  19.584   3.868  0.2498  0.0092  0.0546
    1DIPC   C4A23528  12.672  19.543   4.269  0.2918  0.1676  0.1710
    1DIPC   C1B23529  11.836  18.811   3.416  0.4096  0.1065 -0.2440
    1DIPC   D2B23530  11.903  18.916   3.887  0.0783  0.3482  0.1722
    1DIPC   D3B23531  12.195  18.681   4.200 -0.0624 -0.0777  0.1005
    1DIPC   C4B23532  12.650  18.735   4.107  0.0421 -0.1653  0.0406
    1DIPC   NC323533   6.761  29.064   2.262 -0.0619  0.0889  0.1454
    1DIPC   PO423534   6.271  29.127   2.317 -0.0551  0.1589 -0.2444
    1DIPC   GL123535   6.398  29.081   2.663  0.2968 -0.1070 -0.0971
    1DIPC   GL223536   6.279  29.446   2.781  0.2267  0.0895  0.1039
    1DIPC   C1A23537   6.484  29.134   3.062  0.0632  0.0245  0.1296
    1DIPC   D2A23538   6.690  29.142   3.443  0.0944 -0.1243  0.2528
    1DIPC   D3A23539   6.440  29.439   3.609  0.2927 -0.0162  0.1493
    1DIPC   C4A23540   6.530  29.655   3.946  0.1372  0.2642 -0.0307
    1DIPC   C1B23541   5.873  29.334   3.022 -0.2962 -0.0169  0.0016
    1DIPC   D2B23542   5.651  29.006   3.309 -0.0835 -0.3576 -0.1981
    1DIPC   D3B23543   5.532  29.171   3.772 -0.0900 -0.0727 -0.0691
    1DIPC   C4B23544   5.157  29.065   3.908  0.1939  0.1418  0.1486
    1DIPC   NC323545   3.594  28.797   1.272  0.0235  0.0190  0.2913
    1DIPC   PO423546   3.271  28.776   1.689 -0.0192  0.1693  0.2813
    1DIPC   GL123547   3.373  28.756   2.159  0.4593 -0.1562 -0.0859
    1DIPC   GL223548   3.707  28.534   2.368 -0.1092 -0.2726 -0.3263
    1DIPC   C1A23549   3.618  29.028   2.506  0.3419  0.0447  0.2062
    1DIPC   D2A23550   3.704  29.500   2.556  0.1093  0.0565 -0.0486
    1DIPC   D3A23551   3.790  29.565   2.990 -0.3311 -0.0641 -0.0010
    1DIPC   C4A23552   3.860  29.269   3.371 -0.1769 -0.1000 -0.1907
    1DIPC   C1B23553   3.392  28.490   2.636  0.0342  0.3417 -0.0896
    1DIPC   D2B23554   3.263  28.699   2.983  0.1649 -0.0957 -0.2268
    1DIPC   D3B23555   3.499  29.045   2.978  0.0283 -0.0631 -0.2196
    1DIPC   C4B23556   3.903  28.932   2.886  0.0513  0.0368  0.2099
    1DIPC   NC323557  15.902  16.216   1.729 -0.0322  0.1975  0.0876
    1DIPC   PO423558  16.068  16.669   1.921  0.1731  0.1007  0.0020
    1DIPC   GL123559  15.993  16.793   2.323 -0.1059 -0.0091 -0.0638
    1DIPC   GL223560  15.954  17.129   2.365 -0.0038 -0.0616  0.1731
    1DIPC   C1A23561  15.773  16.833   2.816  0.0438 -0.2620 -0.3289
    1DIPC   D2A23562  15.577  16.995   3.182 -0.4759  0.0299  0.2274
    1DIPC   D3A23563  15.217  16.837   3.374 -0.4426  0.0528  0.0316
    1DIPC   C4A23564  14.857  16.883   3.449 -0.0636  0.3312  0.0165
    1DIPC   C1B23565  15.557  17.219   2.558  0.1111 -0.0234 -0.1703
    1DIPC   D2B23566  15.256  17.078   2.802  0.0753  0.1005  0.0856
    1DIPC   D3B23567  15.289  16.678   2.866 -0.2303 -0.3414  0.1469
    1DIPC   C4B23568  15.571  16.506   3.162  0.0820 -0.1941  0.0324
    1DIPC   NC323569  24.544  25.332   2.730  0.2142 -0.0934 -0.2009
    1DIPC   PO423570  24.836  25.730   2.815 -0.3955 -0.0117 -0.1125
    1DIPC   GL123571  24.702  25.718   3.185  0.0926 -0.3460  0.1190
    1DIPC   GL223572  24.766  26.050   3.288 -0.0099 -0.0427  0.2090
    1DIPC   C1A23573  24.653  25.560   3.622  0.2777  0.0634 -0.1177
    1DIPC   D2A23574  24.673  25.039   3.752 -0.2444  0.0103  0.1691
    1DIPC   D3A23575  24.607  25.116   4.241  0.0197 -0.1796  0.0991
    1DIPC   C4A23576  24.778  25.429   4.374 -0.1600 -0.1417  0.0308
    1DIPC   C1B23577  24.761  26.252   3.653 -0.1268 -0.1048  0.1478
    1DIPC   D2B23578  24.746  26.516   4.080 -0.1778  0.0011 -0.0389
    1DIPC   D3B23579  24.757  26.493   4.564  0.2660  0.0340 -0.2008
    1DIPC   C4B23580  24.314  26.669   4.788  0.0496  0.3166 -0.0502
    1DIPC   NC323581  26.162   5.116   2.517 -0.0234  0.1184 -0.4325
    1DIPC   PO423582  26.497   5.350   2.806 -0.0605 -0.0699 -0.2259
    1DIPC   GL123583  26.440   5.180   3.284  0.0351  0.1291  0.1968
    1DIPC   GL223584  26.650   5.239   3.556  0.0642  0.0592  0.4019
    1DIPC   C1A23585  26.232   5.065   3.714  0.0318 -0.0815 -0.1324
    1DIPC   D2A23586  26.106   4.933   4.067  0.3122  0.1764 -0.0803
    1DIPC   D3A23587  26.156   5.071   4.460 -0.0804  0.1889 -0.2662
    1DIPC   C4A23588  26.522   5.122   4.685  0.2130 -0.2439  0.1388
    1DIPC   C1B23589  26.961   5.269   3.927 -0.0235  0.2439  0.0406
    1DIPC   D2B23590  26.948   5.126   4.417 -0.1849  0.3641  0.0158
    1DIPC   D3B23591  26.902   5.400   4.766 -0.3233 -0.0824 -0.1179
    1DIPC   C4B23592  26.688   5.162   5.145 -0.3906  0.0424 -0.1088
    1DIPC   NC323593  27.971  25.781   2.870 -0.1860 -0.1243  0.2507
    1DIPC   PO423594  27.953  25.365   3.073 -0.1322 -0.2702  0.2053
    1DIPC   GL123595  28.080  25.671   3.450 -0.1778 -0.1029  0.1384
    1DIPC   GL223596  28.322  25.647   3.310 -0.0762 -0.3350 -0.1063
    1DIPC   C1A23597  27.968  25.693   3.879 -0.1084  0.1250  0.0050
    1DIPC   D2A23598  27.641  25.943   4.209  0.1098 -0.0926  0.0907
    1DIPC   D3A23599  27.462  25.614   4.349  0.0539  0.0648  0.2518
    1DIPC   C4A23600  27.132  25.448   4.203 -0.1624  0.3123 -0.1320
    1DIPC   C1B23601  28.750  25.737   3.466 -0.1565 -0.1501  0.4103
    1DIPC   D2B23602  29.244  25.601   3.543  0.3175 -0.0018  0.0073
    1DIPC   D3B23603  29.418  25.803   3.947  0.1273 -0.1357 -0.3863
    1DIPC   C4B23604  29.712  25.785   4.135  0.2853 -0.0848 -0.3367
    1DIPC   NC323605   7.785  25.583   2.565 -0.4074 -0.0387 -0.2555
    1DIPC   PO423606   7.647  25.243   2.543  0.0641 -0.1116 -0.0013
    1DIPC   GL123607   7.547  25.018   2.894 -0.0545  0.3114 -0.0473
    1DIPC   GL223608   7.667  24.710   3.044  0.0922  0.0612 -0.1459
    1DIPC   C1A23609   7.516  25.098   3.396 -0.4921 -0.0095  0.0678
    1DIPC   D2A23610   7.590  25.017   3.774 -0.0754  0.0836  0.0956
    1DIPC   D3A23611   7.443  25.405   3.856 -0.1825 -0.0214  0.0356
    1DIPC   C4A23612   7.554  25.565   4.257  0.0872  0.3319  0.3640
    1DIPC   C1B23613   7.738  24.605   3.369 -0.1730  0.0072  0.1874
    1DIPC   D2B23614   7.906  24.478   3.746  0.4728  0.1466  0.2563
    1DIPC   D3B23615   8.346  24.536   3.666 -0.0106  0.1018 -0.1715
    1DIPC   C4B23616   8.574  24.856   3.366 -0.2547 -0.0730  0.0189
    1DIPC   NC323617   4.417  16.317   3.315 -0.1988 -0.4218  0.0139
    1DIPC   PO423618   4.653  15.916   3.422  0.1145 -0.3231  0.3059
    1DIPC   GL123619   5.099  16.066   3.593 -0.0161 -0.0784 -0.1914
    1DIPC   GL223620   5.301  16.076   3.336  0.2238  0.1205  0.2629
    1DIPC   C1A23621   5.463  16.320   3.812 -0.0533 -0.1382  0.1314
    1DIPC   D2A23622   5.787  16.516   3.930  0.5023  0.3847  0.0042
    1DIPC   D3A23623   5.695  16.278   4.256  0.0691  0.1787  0.1301
    1DIPC   C4A23624   5.849  15.877   4.296  0.1296  0.3112  0.0504
    1DIPC   C1B23625   5.592  15.745   3.585  0.0269 -0.0757  0.1336
    1DIPC   D2B23626   5.673  15.481   4.020  0.1255  0.1662 -0.4036
    1DIPC   D3B23627   5.933  15.187   4.074 -0.5090 -0.2514 -0.2272
    1DIPC   C4B23628   6.184  15.423   4.374  0.1819  0.1208 -0.1439
    1DIPC   NC323629  24.843  22.760   3.232  0.0229  0.4412  0.1665
    1DIPC   PO423630  25.273  22.472   3.385 -0.1124  0.0130  0.2184
    1DIPC   GL123631  25.319  22.117   3.596 -0.1047  0.1734  0.0659
    1DIPC   GL223632  25.066  22.037   3.737  0.1616  0.1053 -0.0922
    1DIPC   C1A23633  25.362  21.873   4.082  0.1015 -0.1395 -0.0139
    1DIPC   D2A23634  25.218  21.938   4.538 -0.0296 -0.5694 -0.0372
    1DIPC   D3A23635  25.484  22.073   4.823 -0.0058  0.0062 -0.0427
    1DIPC   C4A23636  25.434  22.197   5.224  0.0079 -0.1434 -0.1095
    1DIPC   C1B23637  24.917  22.154   4.245 -0.0209  0.2335 -0.2961
    1DIPC   D2B23638  24.873  22.318   4.549  0.1225 -0.0461  0.0760
    1DIPC   D3B23639  24.740  21.955   4.704 -0.2127 -0.1583 -0.0139
    1DIPC   C4B23640  24.907  21.548   4.414  0.0550 -0.2071 -0.1037
    1DIPC   NC323641   2.547   2.121   3.136 -0.2746  0.0909 -0.2028
    1DIPC   PO423642   2.843   2.166   3.496  0.2906 -0.0157 -0.0411
    1DIPC   GL123643   2.774   2.190   3.917  0.3106 -0.0682  0.0316
    1DIPC   GL223644   3.031   2.445   4.016  0.0605 -0.0381 -0.0955
    1DIPC   C1A23645   2.603   2.179   4.317  0.3922  0.1053 -0.1114
    1DIPC   D2A23646   2.532   2.149   4.788  0.0205  0.1192  0.2076
    1DIPC   D3A23647   2.474   1.775   4.646  0.2094  0.2297 -0.0564
    1DIPC   C4A23648   2.459   1.397   4.805  0.0320  0.0043  0.0992
    1DIPC   C1B23649   3.206   2.347   4.395 -0.1560  0.0289 -0.0779
    1DIPC   D2B23650   3.511   2.117   4.587 -0.1079  0.1779 -0.1694
    1DIPC   D3B23651   3.605   2.485   4.809 -0.0477  0.2802  0.3482
    1DIPC   C4B23652   3.253   2.726   4.754 -0.0873  0.1065  0.1815
    1DIPC   NC323653  14.907  12.725   2.594 -0.3952 -0.1178 -0.0958
    1DIPC   PO423654  14.517  12.430   2.512  0.0241  0.0300  0.0346
    1DIPC   GL123655  14.609  12.441   2.947  0.4283 -0.1235 -0.0929
    1DIPC   GL223656  14.445  12.161   3.102  0.0795 -0.1374  0.4804
    1DIPC   C1A23657  14.872  12.253   3.330 -0.1465 -0.0492  0.0280
    1DIPC   D2A23658  15.005  11.916   3.494 -0.1834  0.0868 -0.0311
    1DIPC   D3A23659  14.705  11.736   3.700  0.1012  0.1876 -0.0285
    1DIPC   C4A23660  14.763  11.612   4.048 -0.0924 -0.0939 -0.0210
    1DIPC   C1B23661  14.332  12.366   3.478  0.2311 -0.3068  0.1819
    1DIPC   D2B23662  14.227  12.593   3.827 -0.0850  0.2984 -0.3605
    1DIPC   D3B23663  14.173  12.820   4.230 -0.0966  0.2817  0.1053
    1DIPC   C4B23664  13.853  12.684   4.487 -0.0195  0.1211 -0.3541
    1DIPC   NC323665  14.473  16.258   2.467  0.2090  0.2124 -0.0492
    1DIPC   PO423666  14.860  16.295   2.365  0.2176 -0.4537  0.0824
    1DIPC   GL123667  15.025  15.961   2.672  0.2400  0.2057  0.0952
    1DIPC   GL223668  15.274  16.177   2.880 -0.0039 -0.0716 -0.3061
    1DIPC   C1A23669  14.829  15.904   3.087  0.0123 -0.2573  0.0545
    1DIPC   D2A23670  14.945  15.631   3.437 -0.0858 -0.1260  0.3301
    1DIPC   D3A23671  14.569  15.960   3.556  0.2396 -0.4163 -0.0233
    1DIPC   C4A23672  14.340  16.169   3.891  0.1462 -0.0724  0.2040
    1DIPC   C1B23673  15.434  15.961   3.256  0.0058 -0.0071 -0.3464
    1DIPC   D2B23674  15.829  15.831   3.457 -0.4910 -0.0169  0.0534
    1DIPC   D3B23675  15.420  15.708   3.761 -0.1090  0.1638  0.1278
    1DIPC   C4B23676  15.335  15.687   4.205  0.0567  0.3314 -0.0830
    1DIPC   NC323677   5.457  20.363   2.521  0.2878  0.0202 -0.2005
    1DIPC   PO423678   5.392  19.916   2.688  0.1953 -0.0378 -0.2425
    1DIPC   GL123679   5.400  20.173   3.098  0.0694  0.3345  0.1160
    1DIPC   GL223680   5.621  20.403   2.999 -0.1022 -0.1150  0.1925
    1DIPC   C1A23681   5.203  20.432   3.398 -0.2472 -0.0888  0.1703
    1DIPC   D2A23682   4.897  20.579   3.750 -0.2409  0.3092  0.0750
    1DIPC   D3A23683   4.606  20.820   3.618  0.1586 -0.2588 -0.3891
    1DIPC   C4A23684   4.397  21.291   3.566  0.3036 -0.1199  0.0619
    1DIPC   C1B23685   5.577  20.744   3.308  0.2942  0.2491  0.1740
    1DIPC   D2B23686   5.230  20.902   3.427  0.0149  0.3276 -0.1128
    1DIPC   D3B23687   5.222  20.949   3.892  0.0175  0.3404 -0.3214
    1DIPC   C4B23688   4.866  21.141   3.934 -0.0220 -0.2758 -0.0943
    1DIPC   NC323689  15.901   1.497   4.464  0.2320  0.1408  0.1015
    1DIPC   PO423690  15.682   1.301   4.172  0.1425  0.1459 -0.0084
    1DIPC   GL123691  15.512   1.250   4.657  0.0748  0.0502 -0.0111
    1DIPC   GL223692  15.779   1.185   4.821  0.2828  0.1895  0.2286
    1DIPC   C1A23693  15.280   0.938   5.019  0.2770  0.2813 -0.3490
    1DIPC   D2A23694  15.329   0.713   5.367  0.0709 -0.1465  0.2479
    1DIPC   D3A23695  14.852   0.820   5.379  0.0954 -0.0834  0.1329
    1DIPC   C4A23696  14.851   1.186   5.081 -0.1228  0.0444 -0.1438
    1DIPC   C1B23697  15.848   0.852   5.131 -0.2402  0.2166 -0.0119
    1DIPC   D2B23698  16.252   0.900   5.320  0.0189  0.0847 -0.1177
    1DIPC   D3B23699  16.086   0.397   5.232  0.2806 -0.0788  0.1281
    1DIPC   C4B23700  15.827   0.023   5.461 -0.1528 -0.3327 -0.3053
    1DIPC   NC323701  16.978  19.156   1.860  0.0186  0.1524 -0.3894
    1DIPC   PO423702  16.868  18.836   1.684  0.0742  0.0970  0.2165
    1DIPC   GL123703  16.621  18.869   2.049 -0.2651 -0.0781 -0.0363
    1DIPC   GL223704  16.756  18.669   2.231  0.0980 -0.2621 -0.0336
    1DIPC   C1A23705  16.647  19.037   2.551  0.2481 -0.1829  0.0674
    1DIPC   D2A23706  16.647  19.326   2.878  0.0867  0.0523 -0.0878
    1DIPC   D3A23707  17.144  19.233   2.914  0.1969 -0.1988 -0.0132
    1DIPC   C4A23708  17.435  19.292   3.252 -0.0405  0.2986 -0.0282
    1DIPC   C1B23709  16.519  18.562   2.693  0.2485  0.0538  0.0474
    1DIPC   D2B23710  16.407  18.275   2.928  0.0236 -0.0953  0.1863
    1DIPC   D3B23711  16.152  18.470   3.209 -0.0310 -0.0350  0.0006
    1DIPC   C4B23712  16.064  18.366   3.627 -0.2525  0.1752 -0.1583
    1DIPC   NC323713  14.049  16.371   2.241  0.1721  0.3224  0.2773
    1DIPC   PO423714  14.402  16.750   2.290 -0.0868 -0.0520  0.2000
    1DIPC   GL123715  14.152  16.699   2.607 -0.1310 -0.0977  0.1859
    1DIPC   GL223716  14.412  16.683   2.844 -0.1636  0.2095 -0.0957
    1DIPC   C1A23717  13.919  16.600   2.873  0.1546 -0.1232 -0.0362
    1DIPC   D2A23718  13.555  16.484   3.116 -0.1376 -0.2637  0.3075
    1DIPC   D3A23719  13.544  16.375   3.582 -0.2287  0.1390 -0.0720
    1DIPC   C4A23720  13.757  16.575   3.952 -0.2892 -0.1932 -0.0563
    1DIPC   C1B23721  14.416  16.838   3.243  0.1031 -0.0436 -0.1275
    1DIPC   D2B23722  14.432  17.069   3.630  0.1635 -0.2823 -0.1341
    1DIPC   D3B23723  14.009  16.944   3.631 -0.0013  0.1245 -0.0418
    1DIPC   C4B23724  13.984  16.568   3.444 -0.1903 -0.2980 -0.2533
    1DIPC   NC323725  18.275  16.794   1.966  0.2528 -0.2806  0.4122
    1DIPC   PO423726  18.602  17.061   2.037 -0.1018  0.1032 -0.0186
    1DIPC   GL123727  18.781  17.077   2.542 -0.1531  0.0860  0.0587
    1DIPC   GL223728  18.657  17.440   2.642 -0.1827  0.0841 -0.2480
    1DIPC   C1A23729  18.906  16.775   2.859  0.1984  0.1111  0.1293
    1DIPC   D2A23730  18.826  16.795   3.253  0.1013  0.2984  0.0369
    1DIPC   D3A23731  18.817  16.817   3.619  0.1141 -0.3575 -0.2147
    1DIPC   C4A23732  19.011  17.137   3.745 -0.1199 -0.1260  0.3503
    1DIPC   C1B23733  18.577  17.239   3.053  0.2643  0.1159 -0.2359
    1DIPC   D2B23734  18.561  17.228   3.450 -0.3677 -0.1605 -0.4912
    1DIPC   D3B23735  18.497  17.646   3.390  0.0199 -0.0734  0.1086
    1DIPC   C4B23736  18.751  17.752   3.058 -0.0524 -0.0680  0.1472
    1DIPC   NC323737   3.202  13.133   2.374  0.1417  0.2352 -0.0205
    1DIPC   PO423738   2.699  13.070   2.471  0.0262  0.1904  0.0660
    1DIPC   GL123739   2.540  13.145   2.886 -0.2244 -0.0984 -0.4191
    1DIPC   GL223740   2.550  12.994   3.140 -0.0769  0.3966 -0.0069
    1DIPC   C1A23741   2.801  13.318   3.359  0.0016 -0.1356 -0.1024
    1DIPC   D2A23742   2.660  13.510   3.827 -0.1085  0.2062  0.1536
    1DIPC   D3A23743   2.248  13.440   3.984 -0.0493  0.0811  0.1992
    1DIPC   C4A23744   2.203  13.708   4.397  0.0246 -0.2081 -0.0919
    1DIPC   C1B23745   2.871  12.837   3.286  0.3194 -0.1266  0.1014
    1DIPC   D2B23746   3.332  12.707   3.112 -0.0844 -0.0881  0.1810
    1DIPC   D3B23747   3.446  12.887   3.541  0.3025  0.0387 -0.0894
    1DIPC   C4B23748   3.119  13.144   3.707  0.3601 -0.1331  0.1772
    1DIPC   NC323749  25.594   4.004   3.173 -0.4286 -0.1205 -0.1017
    1DIPC   PO423750  25.658   4.416   3.006  0.0266  0.1251 -0.0988
    1DIPC   GL123751  25.656   4.406   3.454 -0.1892  0.1264  0.1733
    1DIPC   GL223752  25.367   4.404   3.621  0.0534  0.1067 -0.0594
    1DIPC   C1A23753  25.778   4.499   3.882  0.1329 -0.2458 -0.0992
    1DIPC   D2A23754  25.839   4.631   4.374 -0.0253 -0.1933 -0.0166
    1DIPC   D3A23755  25.661   4.348   4.716  0.1821  0.2703  0.2868
    1DIPC   C4A23756  25.542   4.706   4.928  0.0089  0.2755  0.3092
    1DIPC   C1B23757  25.453   4.105   3.926  0.1275 -0.0335  0.1918
    1DIPC   D2B23758  25.661   4.025   4.368 -0.0212  0.0380 -0.1005
    1DIPC   D3B23759  25.666   3.686   4.534  0.0457 -0.2777  0.2020
    1DIPC   C4B23760  26.186   3.723   4.685  0.3091 -0.3028  0.0432
    1DIPC   NC323761  18.385   2.588   3.816  0.1088  0.2424  0.1657
    1DIPC   PO423762  18.393   2.972   4.106  0.1215  0.0542  0.3404
    1DIPC   GL123763  18.244   2.898   4.486 -0.1749  0.0657 -0.1506
    1DIPC   GL223764  18.266   2.651   4.745  0.0731  0.0341  0.0950
    1DIPC   C1A23765  18.342   3.089   4.919  0.2089 -0.1933 -0.0095
    1DIPC   D2A23766  18.461   3.123   5.328 -0.0698  0.0454  0.1096
    1DIPC   D3A23767  18.451   2.987   5.791  0.0057  0.1222 -0.2263
    1DIPC   C4A23768  18.585   2.841   6.272  0.0506 -0.2403  0.2227
    1DIPC   C1B23769  18.213   2.681   5.137 -0.0391 -0.5817  0.2170
    1DIPC   D2B23770  18.233   2.574   5.565 -0.3244 -0.2050 -0.1105
    1DIPC   D3B23771  18.045   2.111   5.682 -0.2221 -0.1320  0.1129
    1DIPC   C4B23772  18.283   1.853   6.047  0.1706  0.0620  0.1262
    1DIPC   NC323773   8.079  11.950   2.909  0.0593 -0.1478  0.0388
    1DIPC   PO423774   8.342  11.637   2.873  0.1901  0.0735 -0.2146
    1DIPC   GL123775   8.243  11.681   3.367  0.0487 -0.1255 -0.2949
    1DIPC   GL223776   8.072  11.896   3.465 -0.1479  0.0582  0.2585
    1DIPC   C1A23777   8.175  11.546   3.823 -0.0949 -0.6003 -0.1232
    1DIPC   D2A23778   7.790  11.582   4.025  0.0332  0.0565 -0.0223
    1DIPC   D3A23779   7.883  11.342   4.367 -0.0088 -0.0239 -0.3259
    1DIPC   C4A23780   7.591  11.622   4.611 -0.2326 -0.1702  0.2370
    1DIPC   C1B23781   8.052  12.029   3.813  0.1217  0.1466  0.0796
    1DIPC   D2B23782   8.299  12.181   4.083  0.1614 -0.4253 -0.4498
    1DIPC   D3B23783   8.209  12.685   4.174  0.0244 -0.1980 -0.1522
    1DIPC   C4B23784   8.488  12.912   4.392 -0.0058 -0.0902 -0.0562
    1DIPC   NC323785  22.008  20.858   2.486 -0.0085 -0.0361  0.0260
    1DIPC   PO423786  21.603  20.820   2.641  0.2287  0.0005 -0.0069
    1DIPC   GL123787  21.469  21.083   2.945 -0.0708  0.0728  0.0899
    1DIPC   GL223788  21.672  21.326   3.037  0.2634  0.0537  0.1563
    1DIPC   C1A23789  21.484  21.072   3.414 -0.3181  0.0893  0.1742
    1DIPC   D2A23790  21.585  20.894   3.787 -0.0257 -0.4417 -0.0517
    1DIPC   D3A23791  21.324  20.843   4.036 -0.1780 -0.0337 -0.2890
    1DIPC   C4A23792  21.525  20.506   4.333  0.0224 -0.1451  0.5637
    1DIPC   C1B23793  21.625  21.548   3.415  0.1747  0.2433 -0.1421
    1DIPC   D2B23794  21.733  21.815   3.657  0.0990  0.0365 -0.2334
    1DIPC   D3B23795  21.370  21.826   3.961  0.1402  0.0890 -0.0750
    1DIPC   C4B23796  21.382  22.175   4.215 -0.1832  0.0138 -0.2744
    1DIPC   NC323797   3.449   0.561   2.462 -0.0573  0.2072  0.2430
    1DIPC   PO423798   3.070   0.632   2.629 -0.3956 -0.2975 -0.2344
    1DIPC   GL123799   2.828   0.249   2.797  0.0825 -0.0950  0.0508
    1DIPC   GL223800   2.942  29.731   2.727 -0.0910 -0.1404 -0.2189
    1DIPC   C1A23801   2.425   0.343   3.046  0.1894  0.3148  0.2188
    1DIPC   D2A23802   2.088   0.250   3.179 -0.2731  0.1186 -0.3514
    1DIPC   D3A23803   2.024  29.784   3.495  0.0125 -0.1569 -0.0551
    1DIPC   C4A23804   1.827  29.498   3.302 -0.2898  0.1321 -0.0931
    1DIPC   C1B23805   2.813  29.678   3.091 -0.3052  0.0568  0.0335
    1DIPC   D2B23806   2.502  29.851   3.410  0.0450 -0.1188  0.0606
    1DIPC   D3B23807   2.561  29.670   3.921  0.1129  0.3252  0.3086
    1DIPC   C4B23808   2.447  29.747   4.283 -0.0230 -0.0925 -0.0922
    1DIPC   NC323809  23.979   2.389   3.592  0.0202 -0.0039 -0.0987
    1DIPC   PO423810  24.273   2.741   3.542 -0.0645 -0.2407  0.3717
    1DIPC   GL123811  24.023   2.854   3.883  0.0792  0.2033 -0.0500
    1DIPC   GL223812  23.985   2.555   4.042  0.0077 -0.1202  0.1391
    1DIPC   C1A23813  23.794   2.980   4.301 -0.2328 -0.0321 -0.0739
    1DIPC   D2A23814  23.769   2.782   4.747 -0.0439 -0.0031 -0.2797
    1DIPC   D3A23815  23.341   2.941   4.648  0.1601 -0.0218  0.2238
    1DIPC   C4A23816  23.063   2.860   4.316  0.0280  0.0584  0.1567
    1DIPC   C1B23817  24.233   2.595   4.340  0.2849 -0.2615  0.1594
    1DIPC   D2B23818  24.571   2.709   4.653  0.0496 -0.3947 -0.0764
    1DIPC   D3B23819  24.596   2.481   4.992  0.1480  0.0702 -0.2183
    1DIPC   C4B23820  24.244   2.153   5.234  0.0809  0.2166 -0.0090
    1DIPC   NC323821  12.313  26.002   2.299 -0.5281 -0.1142 -0.1386
    1DIPC   PO423822  12.831  25.910   2.449  0.0742  0.2630  0.1188
    1DIPC   GL123823  13.056  25.763   2.808 -0.0718 -0.1885 -0.0538
    1DIPC   GL223824  13.495  25.730   2.731  0.0023 -0.0206  0.2517
    1DIPC   C1A23825  13.273  25.977   3.235 -0.1062 -0.0041 -0.0166
    1DIPC   D2A23826  13.277  26.213   3.611 -0.0628  0.2040 -0.1564
    1DIPC   D3A23827  13.404  25.793   3.831  0.0423  0.1787 -0.0691
    1DIPC   C4A23828  13.086  25.506   3.985  0.0162 -0.1331 -0.0582
    1DIPC   C1B23829  13.434  25.497   3.183  0.1363  0.2760  0.2938
    1DIPC   D2B23830  13.498  25.402   3.639  0.3129 -0.1772 -0.1046
    1DIPC   D3B23831  13.916  25.571   3.866 -0.3560  0.1576 -0.0140
    1DIPC   C4B23832  14.233  25.831   3.723 -0.1110  0.1959 -0.0330
    1DIPC   NC323833   8.765  23.734   1.732  0.2000  0.3191 -0.0120
    1DIPC   PO423834   8.498  23.343   1.908 -0.4172  0.1928  0.2184
    1DIPC   GL123835   8.572  23.240   2.472  0.0349 -0.0728 -0.1498
    1DIPC   GL223836   8.764  23.425   2.672  0.0248 -0.0915  0.2217
    1DIPC   C1A23837   8.367  23.183   2.885 -0.0857  0.1100  0.0580
    1DIPC   D2A23838   8.316  23.298   3.353 -0.1721  0.0958 -0.0493
    1DIPC   D3A23839   8.325  22.883   3.667  0.1566 -0.0111 -0.1715
    1DIPC   C4A23840   8.120  22.692   4.076  0.4373 -0.1187 -0.1959
    1DIPC   C1B23841   8.817  23.348   3.095  0.1462 -0.1058 -0.1842
    1DIPC   D2B23842   8.785  23.167   3.523 -0.0266  0.0202  0.1221
    1DIPC   D3B23843   8.634  22.896   3.224 -0.1342 -0.1280  0.1250
    1DIPC   C4B23844   8.938  22.894   2.920  0.1380 -0.1304  0.0430
    1DIPC   NC323845  22.801   1.205   3.314  0.2301  0.1498 -0.0558
    1DIPC   PO423846  23.123   1.468   3.695  0.1471 -0.0587  0.3262
    1DIPC   GL123847  23.224   1.621   4.055  0.3537  0.1318 -0.0911
    1DIPC   GL223848  22.975   1.359   4.167 -0.0114 -0.0512 -0.2588
    1DIPC   C1A23849  23.375   1.422   4.444 -0.0823 -0.0654  0.2180
    1DIPC   D2A23850  23.369   1.486   4.747  0.3145 -0.2587  0.3131
    1DIPC   D3A23851  23.360   1.406   5.089 -0.0388  0.1911 -0.0929
    1DIPC   C4A23852  23.585   1.161   5.305 -0.0420 -0.0611 -0.1830
    1DIPC   C1B23853  22.835   1.357   4.546 -0.1447  0.1197  0.0832
    1DIPC   D2B23854  22.649   1.117   4.903  0.2797  0.2322  0.1538
    1DIPC   D3B23855  22.849   1.316   5.229 -0.0002 -0.0731  0.3378
    1DIPC   C4B23856  22.792   1.614   5.412  0.1681 -0.4058 -0.1127
    1DIPC   NC323857  29.464  15.487   2.954 -0.3492 -0.1342  0.1292
    1DIPC   PO423858  29.786  15.823   2.925  0.2105 -0.0176 -0.0471
    1DIPC   GL123859   0.009  15.656   3.284 -0.2364 -0.1623 -0.0372
    1DIPC   GL223860   0.262  15.927   3.391 -0.0659 -0.0428  0.1065
    1DIPC   C1A23861   0.279  15.334   3.503  0.2701  0.1399 -0.0369
    1DIPC   D2A23862   0.448  15.162   3.804  0.0031 -0.1729 -0.0700
    1DIPC   D3A23863   0.312  15.269   4.114 -0.1291  0.0278  0.1286
    1DIPC   C4A23864   0.568  15.584   4.156 -0.1359 -0.6017  0.3505
    1DIPC   C1B23865   0.765  15.950   3.620  0.1963 -0.1478 -0.1907
    1DIPC   D2B23866   1.293  15.882   3.639 -0.0403  0.1829  0.1911
    1DIPC   D3B23867   1.404  15.584   3.900  0.0336  0.2979 -0.1894
    1DIPC   C4B23868   1.831  15.419   3.948  0.0006 -0.0386  0.1047
    1DIPC   NC323869  26.206   0.156   2.587  0.1768  0.2421  0.0154
    1DIPC   PO423870  26.283  29.693   2.974 -0.0476 -0.4627 -0.3125
    1DIPC   GL123871  26.286  29.593   3.412 -0.0880 -0.2024  0.1223
    1DIPC   GL223872  26.596  29.719   3.573  0.0972 -0.1499 -0.0212
    1DIPC   C1A23873  26.131  29.571   3.819 -0.0799  0.1230  0.1230
    1DIPC   D2A23874  26.325  29.667   4.191 -0.0162 -0.2374  0.1187
    1DIPC   D3A23875  26.358  29.287   4.387  0.0557  0.0891  0.0915
    1DIPC   C4A23876  26.160  29.081   4.770 -0.1983  0.0833  0.3076
    1DIPC   C1B23877  26.936  29.706   3.954 -0.0611 -0.1772 -0.0934
    1DIPC   D2B23878  26.785  29.622   4.370  0.1586 -0.3468  0.2041
    1DIPC   D3B23879  26.581   0.107   4.492  0.0878  0.1288  0.0718
    1DIPC   C4B23880  26.394   0.387   4.789 -0.1376  0.3032  0.0101
    1DIPC   NC323881  11.455   6.176   3.164 -0.2529 -0.0137  0.4845
    1DIPC   PO423882  11.497   5.707   3.338 -0.3414  0.0035  0.2171
    1DIPC   GL123883  11.550   5.805   3.800 -0.3338 -0.0039 -0.2035
    1DIPC   GL223884  11.897   5.696   3.895  0.1526 -0.3573  0.0340
    1DIPC   C1A23885  11.551   5.520   4.197  0.0514  0.0608 -0.1706
    1DIPC   D2A23886  11.265   5.185   4.234  0.1073  0.0808 -0.0630
    1DIPC   D3A23887  10.988   5.642   4.151 -0.2608  0.0632  0.1833
    1DIPC   C4A23888  10.565   5.739   4.274 -0.2547 -0.2072 -0.0109
    1DIPC   C1B23889  11.796   5.938   4.293  0.0535  0.1060  0.1259
    1DIPC   D2B23890  11.757   6.267   4.536 -0.0721 -0.2202  0.1295
    1DIPC   D3B23891  11.973   6.438   4.871 -0.1606  0.0515 -0.0096
    1DIPC   C4B23892  12.111   6.968   4.950 -0.1018 -0.1924  0.1865
    1DIPC   NC323893   2.433  13.475   2.157 -0.1550  0.1976  0.5907
    1DIPC   PO423894   2.409  13.537   2.642  0.1382 -0.0113 -0.2735
    1DIPC   GL123895   2.162  13.600   3.073 -0.4204  0.0350  0.0088
    1DIPC   GL223896   2.190  13.283   3.277  0.0522  0.1912 -0.0565
    1DIPC   C1A23897   2.173  13.739   3.479 -0.0956 -0.0838 -0.1914
    1DIPC   D2A23898   1.961  13.918   3.655  0.0893  0.2578  0.0895
    1DIPC   D3A23899   2.431  13.934   3.843 -0.3682 -0.1230 -0.1569
    1DIPC   C4A23900   2.551  14.277   4.176 -0.0107 -0.1181  0.0701
    1DIPC   C1B23901   2.315  13.092   3.685 -0.3506 -0.0719 -0.0424
    1DIPC   D2B23902   2.669  12.975   3.903  0.3003 -0.1279 -0.2707
    1DIPC   D3B23903   2.383  12.775   4.084 -0.0966 -0.0828  0.3665
    1DIPC   C4B23904   2.318  12.508   4.405 -0.0289  0.3084  0.5056
    1DIPC   NC323905  13.301  29.671   3.624  0.0708 -0.1551 -0.0555
    1DIPC   PO423906  13.193   0.216   3.739  0.0260 -0.3360  0.2513
    1DIPC   GL123907  12.935  29.757   3.930  0.4446  0.1573  0.0642
    1DIPC   GL223908  13.108  29.542   4.071 -0.0935  0.0944 -0.2262
    1DIPC   C1A23909  12.574  29.481   4.088 -0.2109  0.0312  0.0515
    1DIPC   D2A23910  12.315  29.195   4.229  0.3068 -0.3099  0.0705
    1DIPC   D3A23911  12.572  29.346   4.562 -0.1595  0.0169 -0.1752
    1DIPC   C4A23912  12.800  29.666   4.638 -0.2441 -0.0057 -0.1170
    1DIPC   C1B23913  13.057  29.303   4.455 -0.2655  0.1459 -0.1254
    1DIPC   D2B23914  13.139  28.946   4.621 -0.1214  0.2483  0.2921
    1DIPC   D3B23915  12.785  28.954   4.865 -0.2398  0.0202  0.1583
    1DIPC   C4B23916  12.516  28.937   5.072  0.0580 -0.2382 -0.0514
    1DIPC   NC323917   5.020  22.635   1.832 -0.2682 -0.0408 -0.0141
    1DIPC   PO423918   5.272  22.318   2.132 -0.3531 -0.1801  0.0443
    1DIPC   GL123919   5.131  22.404   2.653 -0.0335 -0.0487  0.1090
    1DIPC   GL223920   5.259  22.157   2.837 -0.4643  0.0907 -0.0115
    1DIPC   C1A23921   5.127  22.634   3.136 -0.1093  0.1510  0.2216
    1DIPC   D2A23922   5.383  22.854   3.341 -0.1323 -0.0354 -0.1190
    1DIPC   D3A23923   5.809  22.662   3.475  0.3755  0.0662  0.0310
    1DIPC   C4A23924   6.113  22.988   3.674 -0.0743  0.3253  0.1086
    1DIPC   C1B23925   5.029  22.141   3.178  0.0946  0.0462  0.1682
    1DIPC   D2B23926   5.206  22.129   3.608 -0.1865  0.2427 -0.4151
    1DIPC   D3B23927   5.370  22.550   3.760  0.1670  0.2376  0.2982
    1DIPC   C4B23928   5.642  22.426   4.096 -0.4030  0.1633  0.0953
    1DIPC   NC323929  14.623  11.598   2.324  0.0187 -0.0390  0.1006
    1DIPC   PO423930  14.225  11.401   2.426 -0.0156  0.1667 -0.0375
    1DIPC   GL123931  14.228  11.348   2.849  0.0254 -0.1568  0.0932
    1DIPC   GL223932  14.223  11.656   2.915  0.0456  0.3499  0.1716
    1DIPC   C1A23933  14.374  11.105   3.247  0.1135  0.0516 -0.0934
    1DIPC   D2A23934  14.594  10.646   3.235 -0.1522  0.1555  0.2098
    1DIPC   D3A23935  14.134  10.710   3.068 -0.2080  0.0075  0.1488
    1DIPC   C4A23936  13.883  11.026   2.926  0.1489  0.2189 -0.0242
    1DIPC   C1B23937  14.315  11.583   3.304  0.1945  0.2152  0.0693
    1DIPC   D2B23938  14.244  11.510   3.660  0.0627  0.0066 -0.2764
    1DIPC   D3B23939  14.154  11.578   4.128  0.1085  0.1605 -0.0855
    1DIPC   C4B23940  14.510  11.616   4.451  0.3039 -0.1024 -0.0498
    1DIPC   NC323941  21.679  26.357   2.887  0.0376 -0.3482  0.0577
    1DIPC   PO423942  21.251  26.269   3.007  0.0289 -0.0677 -0.0050
    1DIPC   GL123943  20.985  26.016   3.182 -0.2730 -0.3848 -0.1954
    1DIPC   GL223944  20.760  26.041   3.001  0.1292  0.0755  0.0299
    1DIPC   C1A23945  20.623  26.061   3.514 -0.0514 -0.1545  0.1346
    1DIPC   D2A23946  20.599  26.106   3.929  0.0080  0.0646 -0.1043
    1DIPC   D3A23947  20.960  26.164   4.114 -0.0690  0.0307  0.1403
    1DIPC   C4A23948  21.084  25.784   4.158 -0.3416  0.0015  0.0087
    1DIPC   C1B23949  20.431  25.794   3.075 -0.0130 -0.0065 -0.0735
    1DIPC   D2B23950  20.282  25.449   3.063 -0.2281  0.4000  0.4878
    1DIPC   D3B23951  19.991  25.691   3.263  0.0737 -0.3132  0.1131
    1DIPC   C4B23952  19.676  25.704   3.663  0.2222  0.3365 -0.0505
    1DIPC   NC323953   4.451  18.089   3.467 -0.0467 -0.2405 -0.1247
    1DIPC   PO423954   4.176  18.298   3.265 -0.1516  0.1163  0.2002
    1DIPC   GL123955   3.876  18.470   3.582 -0.1467 -0.3855  0.0399
    1DIPC   GL223956   3.540  18.459   3.621  0.3105  0.0866  0.0466
    1DIPC   C1A23957   3.883  18.200   3.924  0.0867 -0.0339 -0.4613
    1DIPC   D2A23958   3.780  17.861   4.104  0.1351 -0.4064  0.3847
    1DIPC   D3A23959   3.913  17.685   4.491  0.0467  0.0629  0.1099
    1DIPC   C4A23960   4.395  17.517   4.472 -0.0268  0.1360  0.0271
    1DIPC   C1B23961   3.451  18.490   4.061  0.0975 -0.0907 -0.2248
    1DIPC   D2B23962   3.434  18.618   4.546 -0.0408 -0.2918  0.1634
    1DIPC   D3B23963   3.669  18.425   4.795 -0.1078  0.1753  0.0682
    1DIPC   C4B23964   3.883  18.514   5.196 -0.0617  0.1846  0.4143
    1DIPC   NC323965   2.602  10.768   2.144  0.2162  0.3852 -0.0393
    1DIPC   PO423966   2.439  10.797   2.622  0.1795 -0.0964 -0.0425
    1DIPC   GL123967   2.524  10.755   2.950 -0.3812 -0.0931 -0.1502
    1DIPC   GL223968   2.625  10.411   2.984  0.2779  0.1129 -0.0398
    1DIPC   C1A23969   2.305  10.643   3.334  0.1694  0.0149 -0.2636
    1DIPC   D2A23970   2.137  10.705   3.810 -0.0633  0.1161  0.0005
    1DIPC   D3A23971   2.539  10.586   4.041 -0.2088  0.2767 -0.3143
    1DIPC   C4A23972   2.624  10.151   4.224  0.0790 -0.0134  0.1889
    1DIPC   C1B23973   2.702  10.389   3.421 -0.1004  0.0009  0.0357
    1DIPC   D2B23974   2.904  10.300   3.829  0.1906  0.2737  0.0864
    1DIPC   D3B23975   3.139  10.168   4.141  0.0568 -0.0330 -0.2080
    1DIPC   C4B23976   2.974  10.344   4.447 -0.1775 -0.1911 -0.0572
    1DIPC   NC323977  22.827  19.076   1.301 -0.0653 -0.0697 -0.1927
    1DIPC   PO423978  22.755  18.889   1.668  0.1769  0.3136  0.1702
    1DIPC   GL123979  22.608  18.786   2.111 -0.1390  0.0958 -0.3153
    1DIPC   GL223980  22.685  19.031   2.323  0.2947 -0.0893  0.1636
    1DIPC   C1A23981  22.354  18.495   2.331  0.2859 -0.4768 -0.2218
    1DIPC   D2A23982  22.133  18.212   2.649  0.3488  0.3271  0.2851
    1DIPC   D3A23983  21.655  18.346   2.569  0.4873 -0.0481 -0.1222
    1DIPC   C4A23984  21.377  18.451   2.951  0.1293 -0.0611  0.2072
    1DIPC   C1B23985  22.404  18.913   2.699 -0.3697 -0.1240  0.2494
    1DIPC   D2B23986  22.360  18.622   2.912 -0.2273 -0.0309  0.2353
    1DIPC   D3B23987  22.156  18.944   3.190 -0.0520 -0.0595  0.1078
    1DIPC   C4B23988  22.017  18.878   3.579 -0.1154  0.0015 -0.1301
    1DIPC   NC323989   8.940   2.001   3.328  0.0237  0.3324  0.2112
    1DIPC   PO423990   8.611   2.341   3.238  0.0466  0.3788 -0.0956
    1DIPC   GL123991   8.562   2.255   3.646 -0.3250  0.0220 -0.0256
    1DIPC   GL223992   8.651   2.411   3.902 -0.1636  0.1298  0.1006
    1DIPC   C1A23993   8.395   2.029   4.076  0.3967 -0.3451  0.1317
    1DIPC   D2A23994   8.135   1.998   4.583 -0.2788  0.1248  0.0822
    1DIPC   D3A23995   7.726   1.811   4.410 -0.2363  0.0355 -0.0855
    1DIPC   C4A23996   7.314   1.878   4.635 -0.1465  0.2831  0.0828
    1DIPC   C1B23997   8.688   2.401   4.256  0.2521  0.2139  0.1010
    1DIPC   D2B23998   8.523   2.290   4.622  0.3085 -0.0215  0.1840
    1DIPC   D3B23999   8.781   2.449   4.912 -0.0287  0.0018 -0.0430
    1DIPC   C4B24000   8.794   2.757   5.061  0.3425  0.2511 -0.1822
    1DIPC   NC324001  12.543  16.850   2.464  0.1813 -0.0883  0.0334
    1DIPC   PO424002  12.250  16.675   2.595  0.1560 -0.0170  0.1551
    1DIPC   GL124003  12.044  16.732   3.048 -0.2069  0.2445  0.1517
    1DIPC   GL224004  11.693  16.628   2.992 -0.0355 -0.2121  0.1723
    1DIPC   C1A24005  12.144  16.697   3.480  0.1790 -0.1269 -0.0292
    1DIPC   D2A24006  12.370  16.770   3.895 -0.2114 -0.0787  0.1865
    1DIPC   D3A24007  12.502  16.989   3.538  0.1035 -0.1450  0.1713
    1DIPC   C4A24008  12.847  17.351   3.631 -0.1102 -0.1806 -0.3914
    1DIPC   C1B24009  11.676  16.911   3.388 -0.1836 -0.1187 -0.0261
    1DIPC   D2B24010  11.759  16.779   3.827  0.0560  0.1398  0.0426
    1DIPC   D3B24011  12.035  17.098   3.790  0.0352  0.0705 -0.2357
    1DIPC   C4B24012  12.066  17.231   3.393 -0.0134 -0.2138  0.2371
    1DIPC   NC324013  12.173  14.678   2.477 -0.0905  0.0612 -0.1105
    1DIPC   PO424014  12.488  14.604   2.254  0.1350 -0.1127  0.1228
    1DIPC   GL124015  12.513  14.441   2.757  0.0212  0.0170  0.0086
    1DIPC   GL224016  12.433  14.752   2.887 -0.1451  0.4200  0.4242
    1DIPC   C1A24017  12.730  14.413   3.256  0.0244  0.1834 -0.0043
    1DIPC   D2A24018  12.747  14.547   3.684 -0.1950 -0.1954  0.0375
    1DIPC   D3A24019  12.275  14.602   3.880 -0.0288 -0.0343 -0.3445
    1DIPC   C4A24020  11.885  14.869   3.891  0.0102  0.1176 -0.0165
    1DIPC   C1B24021  12.516  14.928   3.216 -0.2527  0.1731  0.1635
    1DIPC   D2B24022  12.570  15.056   3.654  0.0611 -0.0281 -0.2952
    1DIPC   D3B24023  12.643  14.885   4.077 -0.2032  0.2346  0.0561
    1DIPC   C4B24024  12.499  14.530   4.311 -0.3500 -0.2207 -0.1102
    1DIPC   NC324025   9.361   4.523   3.525 -0.1753 -0.0376  0.1136
    1DIPC   PO424026   9.349   4.165   3.779 -0.0904  0.1646 -0.0918
    1DIPC   GL124027   8.914   4.379   3.969 -0.0322  0.2516 -0.0818
    1DIPC   GL224028   8.650   4.240   3.874  0.0232  0.3155 -0.1656
    1DIPC   C1A24029   8.654   4.567   4.229 -0.1119 -0.1000  0.1557
    1DIPC   D2A24030   8.505   4.451   4.581 -0.0677 -0.1725 -0.1935
    1DIPC   D3A24031   8.328   4.060   4.810  0.0069  0.0748  0.0571
    1DIPC   C4A24032   8.028   4.035   5.077  0.0653  0.1606  0.0046
    1DIPC   C1B24033   8.596   4.007   4.309  0.1954 -0.1465 -0.0249
    1DIPC   D2B24034   8.754   3.638   4.591 -0.1563  0.0948  0.0528
    1DIPC   D3B24035   8.663   3.719   5.057  0.1280  0.2467  0.0186
    1DIPC   C4B24036   8.713   3.402   5.407  0.1215  0.0562 -0.1512
    1DIPC   NC324037  12.935  15.978   2.640  0.0990 -0.0127  0.2565
    1DIPC   PO424038  12.392  15.997   2.668  0.2287  0.1352  0.1099
    1DIPC   GL124039  12.537  16.093   3.069  0.2712  0.1289 -0.0452
    1DIPC   GL224040  12.322  16.292   3.064 -0.1221 -0.1464 -0.1980
    1DIPC   C1A24041  12.783  15.918   3.454 -0.0200  0.1796 -0.1615
    1DIPC   D2A24042  13.074  15.918   3.683 -0.1237  0.1153  0.1982
    1DIPC   D3A24043  12.878  15.906   4.051  0.0629  0.0186 -0.1709
    1DIPC   C4A24044  12.499  15.504   4.122 -0.1599  0.0720 -0.2017
    1DIPC   C1B24045  12.303  15.969   3.458 -0.0177  0.0502  0.0434
    1DIPC   D2B24046  12.336  15.907   3.874  0.1666 -0.1833 -0.1088
    1DIPC   D3B24047  12.178  16.302   3.801  0.2106  0.0317  0.0342
    1DIPC   C4B24048  12.547  16.419   3.464  0.3664 -0.1416 -0.1866
    1DIPC   NC324049  27.618   3.883   3.021 -0.0453  0.0495 -0.0855
    1DIPC   PO424050  27.529   4.107   3.362 -0.4923  0.1068 -0.0911
    1DIPC   GL124051  27.410   3.978   3.790 -0.1805 -0.1294  0.1674
    1DIPC   GL224052  27.263   4.235   3.927 -0.0375  0.2933  0.0635
    1DIPC   C1A24053  27.184   3.800   4.184 -0.0611  0.2132  0.3066
    1DIPC   D2A24054  27.205   3.745   4.564  0.0832 -0.1616  0.2097
    1DIPC   D3A24055  27.478   3.414   4.507 -0.0470 -0.1569 -0.1968
    1DIPC   C4A24056  27.410   3.283   4.947  0.4452  0.0758 -0.0017
    1DIPC   C1B24057  27.301   4.337   4.334  0.0298  0.1747  0.1275
    1DIPC   D2B24058  27.277   4.203   4.695 -0.1231  0.3128  0.0381
    1DIPC   D3B24059  27.037   3.948   4.993 -0.1208 -0.0829 -0.0917
    1DIPC   C4B24060  26.872   3.548   4.909 -0.0597 -0.0679 -0.0356
    1DIPC   NC324061  23.025  16.792   1.607  0.0619  0.0787  0.1261
    1DIPC   PO424062  22.585  16.618   1.838 -0.1442 -0.3000 -0.0411
    1DIPC   GL124063  22.680  16.421   2.244  0.1777 -0.0250  0.0173
    1DIPC   GL224064  22.454  16.090   2.311  0.0967  0.0353 -0.3404
    1DIPC   C1A24065  22.724  16.374   2.614  0.0494  0.1711  0.1126
    1DIPC   D2A24066  23.085  16.119   2.926  0.2264  0.0500 -0.2027
    1DIPC   D3A24067  22.912  15.736   2.929  0.0509  0.2911  0.0051
    1DIPC   C4A24068  22.493  15.635   2.858  0.1637 -0.2666  0.3091
    1DIPC   C1B24069  22.278  16.076   2.734  0.0796  0.0120  0.4006
    1DIPC   D2B24070  22.322  16.424   2.972  0.0430 -0.0276  0.0684
    1DIPC   D3B24071  22.405  16.411   3.439 -0.1116  0.1166  0.1514
    1DIPC   C4B24072  22.606  16.006   3.628 -0.0843 -0.3988  0.0079
    1DIPC   NC324073  13.344  25.707   2.280 -0.3249 -0.0252 -0.0158
    1DIPC   PO424074  13.037  25.413   2.225  0.2034 -0.1587  0.3687
    1DIPC   GL124075  13.170  25.323   2.638 -0.1072  0.3018 -0.2684
    1DIPC   GL224076  13.059  24.928   2.622 -0.0777  0.2227  0.1099
    1DIPC   C1A24077  12.955  25.291   2.987 -0.1393 -0.1548  0.0116
    1DIPC   D2A24078  13.046  25.164   3.376 -0.2403 -0.0430  0.1339
    1DIPC   D3A24079  12.809  25.196   3.786  0.4367  0.0878 -0.0104
    1DIPC   C4A24080  12.656  24.875   4.013  0.1959 -0.0528  0.1093
    1DIPC   C1B24081  13.349  24.928   3.071 -0.0747 -0.2711  0.1611
    1DIPC   D2B24082  13.355  24.741   3.424 -0.0114  0.1628  0.3518
    1DIPC   D3B24083  12.902  24.748   3.580 -0.0652  0.1153  0.0793
    1DIPC   C4B24084  12.835  24.358   3.967  0.2189  0.1057  0.1346
    1DIPC   NC324085   8.452  24.835   2.250  0.0997  0.1979 -0.0840
    1DIPC   PO424086   8.709  24.524   2.333  0.0832  0.1212 -0.1601
    1DIPC   GL124087   8.752  24.731   2.673 -0.0478  0.1062  0.2644
    1DIPC   GL224088   8.698  25.038   2.665 -0.2536  0.0999  0.3150
    1DIPC   C1A24089   9.033  24.795   3.004 -0.1887 -0.0901  0.1057
    1DIPC   D2A24090   9.309  24.843   3.440  0.0297 -0.3929 -0.0678
    1DIPC   D3A24091   9.301  24.655   3.795  0.2394 -0.0092  0.0212
    1DIPC   C4A24092   9.231  24.215   3.731  0.1288  0.0772 -0.2326
    1DIPC   C1B24093   8.936  25.321   3.034 -0.0593  0.0482 -0.0391
    1DIPC   D2B24094   8.988  25.210   3.375 -0.0056 -0.0063  0.0288
    1DIPC   D3B24095   8.828  25.073   3.720 -0.0285  0.4757  0.0415
    1DIPC   C4B24096   8.425  25.319   3.900 -0.0872 -0.0939 -0.1040
    1DIPC   NC324097   0.784   1.331   2.747 -0.4552  0.1833  0.2483
    1DIPC   PO424098   0.648   1.753   2.876  0.0010 -0.0948  0.1184
    1DIPC   GL124099   0.696   1.863   3.349  0.0161 -0.0360  0.3933
    1DIPC   GL224100   0.853   1.561   3.380  0.0814 -0.0726  0.2131
    1DIPC   C1A24101   0.925   2.008   3.777 -0.0515  0.1204 -0.0162
    1DIPC   D2A24102   0.977   1.742   4.097 -0.1287  0.2472  0.1298
    1DIPC   D3A24103   1.147   1.967   4.419  0.0528  0.1474 -0.0593
    1DIPC   C4A24104   1.563   1.906   4.609  0.1335  0.0683  0.3553
    1DIPC   C1B24105   1.203   1.582   3.564  0.3120  0.3311 -0.0909
    1DIPC   D2B24106   1.383   1.475   3.971  0.0268 -0.2041 -0.2139
    1DIPC   D3B24107   1.030   1.248   3.869 -0.3027  0.2417 -0.0721
    1DIPC   C4B24108   0.623   1.522   3.826 -0.0670  0.0834 -0.1324
    1DIPC   NC324109  19.385  20.776   1.689  0.0629 -0.1043 -0.1982
    1DIPC   PO424110  19.789  20.929   1.541  0.0078  0.0233 -0.0813
    1DIPC   GL124111  19.697  21.105   1.982 -0.4267  0.1386  0.2157
    1DIPC   GL224112  19.768  21.332   2.135  0.2446  0.0803 -0.0154
    1DIPC   C1A24113  19.650  20.908   2.395  0.0953  0.0391  0.1608
    1DIPC   D2A24114  19.636  20.738   2.763  0.2154 -0.0973 -0.2994
    1DIPC   D3A24115  19.650  20.712   3.185 -0.0110  0.0484 -0.2486
    1DIPC   C4A24116  19.308  20.842   3.289  0.2731  0.1552  0.3638
    1DIPC   C1B24117  19.769  21.367   2.548 -0.1825  0.0505  0.2570
    1DIPC   D2B24118  19.983  21.405   2.897  0.0360  0.1676  0.1829
    1DIPC   D3B24119  20.096  21.021   2.983  0.1230 -0.1160 -0.1831
    1DIPC   C4B24120  20.205  20.684   3.096  0.2966  0.1424 -0.0627
    1DIPC   NC324121   4.064  20.583   2.009  0.0784 -0.2686  0.2915
    1DIPC   PO424122   3.833  20.480   2.337 -0.1533  0.0054  0.0999
    1DIPC   GL124123   3.879  20.290   2.696 -0.1407 -0.0242 -0.1171
    1DIPC   GL224124   3.822  20.571   2.965  0.0831 -0.0242  0.2338
    1DIPC   C1A24125   3.886  20.080   3.026 -0.0486 -0.0877  0.1146
    1DIPC   D2A24126   3.693  19.914   3.397 -0.1165  0.1507  0.0788
    1DIPC   D3A24127   3.949  20.071   3.752  0.3252  0.1892  0.0345
    1DIPC   C4A24128   3.934  19.925   4.134 -0.0037  0.3047  0.2297
    1DIPC   C1B24129   3.629  20.412   3.302  0.2990  0.2112 -0.0694
    1DIPC   D2B24130   3.485  20.319   3.716 -0.1601  0.0596 -0.3662
    1DIPC   D3B24131   3.855  20.625   3.826  0.1886  0.1773 -0.1721
    1DIPC   C4B24132   4.072  20.718   3.461  0.0111  0.1741  0.1513
    1DIPC   NC324133  17.515  25.300   1.812  0.1879 -0.0287 -0.0739
    1DIPC   PO424134  17.021  25.101   1.939  0.0097 -0.0931 -0.2635
    1DIPC   GL124135  17.365  25.094   2.252  0.3555 -0.0399 -0.3118
    1DIPC   GL224136  17.673  25.245   2.290 -0.1519  0.2318  0.0650
    1DIPC   C1A24137  17.484  24.917   2.708 -0.1942 -0.1166 -0.1636
    1DIPC   D2A24138  17.759  24.610   2.942 -0.1354 -0.4475 -0.2728
    1DIPC   D3A24139  17.554  24.219   2.939 -0.0715  0.1143  0.1313
    1DIPC   C4A24140  17.165  23.915   2.810 -0.0689 -0.0312  0.0801
    1DIPC   C1B24141  17.491  25.431   2.633  0.0969 -0.3147 -0.2577
    1DIPC   D2B24142  17.389  25.259   3.139  0.2647  0.1056  0.2821
    1DIPC   D3B24143  17.639  25.166   3.441 -0.1061  0.0609  0.1799
    1DIPC   C4B24144  17.745  25.526   3.736 -0.1194  0.1416  0.2208
    1DIPC   NC324145  29.160   2.504   2.581  0.0700  0.0810  0.0877
    1DIPC   PO424146  29.339   2.454   2.941  0.2759  0.1064 -0.3970
    1DIPC   GL124147  29.242   2.635   3.411 -0.1718 -0.0501  0.2999
    1DIPC   GL224148  29.072   2.759   3.578  0.1403  0.2623 -0.0476
    1DIPC   C1A24149  29.544   2.594   3.750 -0.1100  0.2392  0.1413
    1DIPC   D2A24150  29.684   2.446   4.169 -0.0064 -0.1169  0.1818
    1DIPC   D3A24151  29.420   2.085   4.138 -0.1485  0.0338 -0.2214
    1DIPC   C4A24152  29.222   2.013   3.729  0.2470  0.0782 -0.1252
    1DIPC   C1B24153  28.907   2.558   3.990  0.1796 -0.0705 -0.0561
    1DIPC   D2B24154  28.970   2.176   4.277  0.1651  0.1064  0.1265
    1DIPC   D3B24155  29.197   2.501   4.378 -0.1123 -0.3805  0.1008
    1DIPC   C4B24156  29.170   2.560   4.846 -0.0179  0.0511  0.2645
    1DIPC   NC324157  23.095  10.183   2.747  0.0065 -0.2860  0.2415
    1DIPC   PO424158  22.797  10.580   2.773  0.0189  0.0024 -0.0044
    1DIPC   GL124159  23.030  10.422   3.172  0.2444 -0.2863 -0.0388
    1DIPC   GL224160  23.022  10.132   3.290  0.0006 -0.0573  0.1259
    1DIPC   C1A24161  22.988  10.497   3.606 -0.0306  0.0126  0.0923
    1DIPC   D2A24162  23.254  10.478   3.820  0.1215 -0.0170 -0.1336
    1DIPC   D3A24163  23.444  10.344   4.063  0.0488  0.0171  0.1610
    1DIPC   C4A24164  23.580  10.338   4.482  0.1326 -0.2281  0.4627
    1DIPC   C1B24165  22.833  10.027   3.668  0.1035  0.3231  0.2546
    1DIPC   D2B24166  22.907  10.060   4.040  0.1246 -0.0390  0.0976
    1DIPC   D3B24167  22.857   9.955   4.433  0.0479 -0.1062  0.2517
    1DIPC   C4B24168  23.167  10.100   4.685  0.2462 -0.1740 -0.1508
    1DIPC   NC324169  16.016  25.209   2.128  0.1100 -0.0894 -0.1336
    1DIPC   PO424170  16.275  25.634   2.149 -0.0027  0.0173  0.0923
    1DIPC   GL124171  16.284  25.477   2.473 -0.0871 -0.1108 -0.5121
    1DIPC   GL224172  16.306  25.157   2.562 -0.2546  0.2278 -0.0300
    1DIPC   C1A24173  16.007  25.467   2.802 -0.2522 -0.0854  0.1340
    1DIPC   D2A24174  15.947  25.677   3.146 -0.1774 -0.3387  0.1664
    1DIPC   D3A24175  16.069  25.561   3.538  0.1208 -0.5224 -0.1151
    1DIPC   C4A24176  15.810  25.808   3.769  0.2291  0.0282  0.2039
    1DIPC   C1B24177  16.535  24.893   2.824 -0.0976 -0.1172  0.0759
    1DIPC   D2B24178  16.517  24.590   3.219 -0.1372 -0.1854 -0.1255
    1DIPC   D3B24179  16.316  24.231   3.422  0.2074  0.1084  0.2420
    1DIPC   C4B24180  16.269  23.814   3.193  0.1168 -0.1060 -0.3040
    1DIPC   NC324181  28.532  17.104   3.112  0.2672 -0.0527 -0.0662
    1DIPC   PO424182  28.964  17.299   3.023  0.3032 -0.1548 -0.0463
    1DIPC   GL124183  28.989  17.314   3.385  0.1404  0.0203 -0.3428
    1DIPC   GL224184  28.708  17.342   3.580  0.0362  0.0646  0.2538
    1DIPC   C1A24185  29.214  17.442   3.703  0.1584 -0.0552  0.0994
    1DIPC   D2A24186  29.519  17.507   3.941  0.2051 -0.4558 -0.2111
    1DIPC   D3A24187  29.806  17.286   4.110 -0.2530 -0.2327 -0.0277
    1DIPC   C4A24188  29.739  17.313   4.514 -0.3407 -0.2786 -0.1137
    1DIPC   C1B24189  28.851  17.109   3.923  0.0722 -0.1122 -0.1632
    1DIPC   D2B24190  29.121  17.038   4.268  0.0902  0.1276 -0.3410
    1DIPC   D3B24191  28.850  16.800   4.430 -0.2921 -0.0412  0.0276
    1DIPC   C4B24192  28.763  16.554   4.683  0.1361  0.0995  0.1370
    1DIPC   NC324193   2.964  23.336   1.997 -0.2496  0.1158  0.0422
    1DIPC   PO424194   2.691  23.720   2.006 -0.3580  0.0533 -0.0008
    1DIPC   GL124195   2.802  23.933   2.505 -0.3922 -0.1446 -0.0105
    1DIPC   GL224196   2.606  24.253   2.630  0.3098 -0.0068  0.1594
    1DIPC   C1A24197   3.098  24.196   2.780 -0.1498 -0.0898  0.3379
    1DIPC   D2A24198   3.240  24.256   3.224 -0.2408  0.2406  0.1232
    1DIPC   D3A24199   3.080  24.472   3.668 -0.1811  0.1219 -0.0796
    1DIPC   C4A24200   3.207  24.853   3.687  0.1787 -0.0734 -0.2743
    1DIPC   C1B24201   2.349  24.264   3.038  0.1920 -0.1642 -0.1113
    1DIPC   D2B24202   2.210  24.406   3.420 -0.0195 -0.4426 -0.0403
    1DIPC   D3B24203   2.470  24.512   3.679 -0.2813 -0.1883 -0.2879
    1DIPC   C4B24204   2.668  24.908   3.609  0.4758  0.2799  0.1237
    1DIPC   NC324205  27.182  22.704   3.039 -0.1284 -0.1648 -0.0052
    1DIPC   PO424206  26.725  22.689   3.119 -0.0992  0.0542 -0.0023
    1DIPC   GL124207  26.957  22.481   3.499 -0.0264  0.1308  0.0777
    1DIPC   GL224208  26.981  22.119   3.478 -0.0069 -0.5903 -0.2228
    1DIPC   C1A24209  27.024  22.486   3.951 -0.1134  0.3663 -0.4945
    1DIPC   D2A24210  26.864  22.850   4.119  0.0821 -0.3323  0.0824
    1DIPC   D3A24211  26.736  22.593   4.338  0.0053  0.2291  0.2267
    1DIPC   C4A24212  26.317  22.498   4.489  0.0036 -0.1398  0.0177
    1DIPC   C1B24213  27.276  22.066   3.794  0.2169  0.0803 -0.0193
    1DIPC   D2B24214  27.472  22.056   4.241 -0.0698 -0.2862  0.1714
    1DIPC   D3B24215  27.275  22.111   4.582 -0.0423  0.0720 -0.1324
    1DIPC   C4B24216  27.182  21.794   4.956  0.2129  0.1925  0.4008
    1DIPC   NC324217   7.380   9.242   3.189  0.2292 -0.0817  0.0625
    1DIPC   PO424218   7.501   9.605   2.911 -0.3188  0.3252 -0.0099
    1DIPC   GL124219   7.448   9.662   3.443  0.2431 -0.3481  0.0065
    1DIPC   GL224220   7.436   9.363   3.658  0.1548  0.1060  0.1926
    1DIPC   C1A24221   7.550   9.976   3.770  0.0122 -0.0760 -0.0730
    1DIPC   D2A24222   7.684  10.317   4.049  0.1984 -0.0295  0.1445
    1DIPC   D3A24223   7.885  10.289   4.409 -0.0404 -0.1691 -0.0371
    1DIPC   C4A24224   7.751  10.344   4.810 -0.0905 -0.0548 -0.2641
    1DIPC   C1B24225   7.556   9.082   3.971 -0.3176  0.2092  0.0376
    1DIPC   D2B24226   7.712   8.875   4.285  0.2078 -0.2382  0.0359
    1DIPC   D3B24227   7.880   8.495   4.095  0.0166 -0.0294 -0.0549
    1DIPC   C4B24228   7.786   8.602   3.687  0.0304 -0.1713  0.2788
    1DIPC   NC324229  16.150  28.422   2.845  0.3639 -0.1586 -0.1747
    1DIPC   PO424230  15.866  27.965   2.828 -0.2291  0.0478 -0.0883
    1DIPC   GL124231  15.865  27.922   3.173  0.0333  0.1909  0.2406
    1DIPC   GL224232  15.959  28.233   3.331  0.0912  0.0940  0.1017
    1DIPC   C1A24233  16.095  27.557   3.489  0.1787 -0.0640  0.0051
    1DIPC   D2A24234  16.246  27.242   3.672 -0.0691 -0.0581  0.1086
    1DIPC   D3A24235  15.973  27.241   4.118  0.1775  0.3318  0.2512
    1DIPC   C4A24236  16.133  26.980   4.434  0.1498  0.0270 -0.1173
    1DIPC   C1B24237  15.963  28.004   3.689  0.1922 -0.0855  0.0036
    1DIPC   D2B24238  15.928  27.703   3.972 -0.2243 -0.3950 -0.0023
    1DIPC   D3B24239  15.802  27.907   4.225 -0.0420  0.0100 -0.3031
    1DIPC   C4B24240  15.983  28.112   4.590 -0.2770 -0.0196 -0.0287
    1DIPC   NC324241   4.797  10.237   2.717  0.0250 -0.0340  0.5415
    1DIPC   PO424242   5.107   9.939   2.740  0.1513 -0.0486 -0.1070
    1DIPC   GL124243   5.048  10.057   3.153  0.1660 -0.0271  0.1070
    1DIPC   GL224244   4.836  10.379   3.218  0.1037  0.0231  0.0491
    1DIPC   C1A24245   5.006  10.084   3.541 -0.0631  0.1296 -0.0132
    1DIPC   D2A24246   5.377  10.335   3.685  0.1240  0.2336 -0.1463
    1DIPC   D3A24247   5.125  10.149   4.045 -0.0345  0.1499  0.1525
    1DIPC   C4A24248   5.118  10.049   4.544 -0.1359 -0.1152 -0.2859
    1DIPC   C1B24249   4.814  10.527   3.729 -0.0246 -0.0064 -0.0533
    1DIPC   D2B24250   5.114  10.833   3.868  0.0917  0.0199 -0.1106
    1DIPC   D3B24251   5.071  10.620   4.192 -0.1341 -0.1364  0.0940
    1DIPC   C4B24252   4.857  10.462   4.441 -0.1284 -0.2271 -0.3909
    1DIPC   NC324253  28.685   2.451   2.857 -0.0370  0.0781 -0.1062
    1DIPC   PO424254  28.861   2.668   3.129 -0.4033 -0.0162 -0.2250
    1DIPC   GL124255  28.958   2.242   3.248  0.2608 -0.1380  0.0656
    1DIPC   GL224256  28.836   2.281   3.558 -0.1417  0.1083 -0.1302
    1DIPC   C1A24257  29.262   1.879   3.209  0.0874  0.0562  0.1211
    1DIPC   D2A24258  29.706   1.791   3.280 -0.1269  0.2733 -0.1618
    1DIPC   D3A24259  29.441   1.547   3.528  0.1125  0.2211 -0.0411
    1DIPC   C4A24260  29.491   1.611   3.904 -0.1905  0.1888 -0.1499
    1DIPC   C1B24261  28.404   2.360   3.831 -0.0368  0.1615 -0.5256
    1DIPC   D2B24262  28.147   2.115   4.098  0.3237 -0.0897  0.5492
    1DIPC   D3B24263  28.434   2.352   4.305 -0.2746  0.0895 -0.1429
    1DIPC   C4B24264  28.711   2.278   4.670  0.2680  0.2674 -0.0249
    1DIPC   NC324265  11.140   7.272   3.572 -0.0647 -0.0441  0.0095
    1DIPC   PO424266  10.745   7.117   3.563  0.2726 -0.1434  0.3342
    1DIPC   GL124267  10.787   7.212   4.027  0.2034 -0.5307  0.1502
    1DIPC   GL224268  11.017   7.424   4.135 -0.0861 -0.1234  0.1033
    1DIPC   C1A24269  10.759   7.196   4.475 -0.0809  0.0663 -0.0483
    1DIPC   D2A24270  10.588   7.161   4.880  0.0480  0.1420 -0.1040
    1DIPC   D3A24271  10.766   7.087   5.234  0.0117  0.1566  0.2415
    1DIPC   C4A24272  11.203   6.866   5.282 -0.1422 -0.0610 -0.1770
    1DIPC   C1B24273  10.714   7.694   4.200  0.1438 -0.2343  0.0339
    1DIPC   D2B24274  10.353   7.857   4.524  0.0839 -0.0406  0.1479
    1DIPC   D3B24275  10.458   8.090   4.832 -0.3244 -0.0593 -0.3741
    1DIPC   C4B24276  10.058   8.220   5.045  0.0295  0.0797 -0.3777
    1DIPC   NC324277  24.270  19.026   2.695  0.1715  0.1160  0.2297
    1DIPC   PO424278  24.431  18.614   2.748 -0.0474 -0.1749  0.0266
    1DIPC   GL124279  24.171  18.302   2.852  0.2670  0.2163  0.0698
    1DIPC   GL224280  24.052  18.106   2.651 -0.1781  0.1811 -0.0674
    1DIPC   C1A24281  24.169  18.160   3.339  0.2575  0.1544 -0.0277
    1DIPC   D2A24282  23.909  18.085   3.687  0.2112 -0.0618  0.1361
    1DIPC   D3A24283  23.484  18.302   3.820  0.0676 -0.3977  0.2638
    1DIPC   C4A24284  23.603  18.699   4.147 -0.2323  0.0748  0.0939
    1DIPC   C1B24285  23.705  18.334   2.979  0.0744  0.2786 -0.0698
    1DIPC   D2B24286  23.425  18.277   3.330  0.1351  0.1122 -0.0130
    1DIPC   D3B24287  23.498  18.687   3.567  0.1180  0.0201  0.0791
    1DIPC   C4B24288  23.689  19.008   3.622  0.0685  0.0753 -0.0232
    1DIPC   NC324289   0.508   3.595   2.590  0.3201 -0.0766  0.0023
    1DIPC   PO424290   0.522   3.346   2.895  0.0766 -0.0636  0.0328
    1DIPC   GL124291   0.448   3.134   3.228 -0.1250  0.1850  0.0470
    1DIPC   GL224292   0.336   2.807   3.354  0.2340  0.0041 -0.2222
    1DIPC   C1A24293   0.368   3.224   3.653  0.3405  0.1303 -0.0072
    1DIPC   D2A24294   0.445   3.193   4.092  0.0526 -0.2603 -0.1095
    1DIPC   D3A24295   0.707   3.125   4.520 -0.0343  0.0096 -0.0214
    1DIPC   C4A24296   1.041   2.763   4.599  0.0181 -0.1760 -0.2026
    1DIPC   C1B24297   0.290   2.541   3.573 -0.0093  0.3957 -0.1131
    1DIPC   D2B24298   0.444   2.100   3.707 -0.7623  0.0105 -0.0562
    1DIPC   D3B24299   0.311   2.357   3.988 -0.1438  0.1003 -0.3247
    1DIPC   C4B24300   0.219   2.769   3.994  0.3295  0.2353  0.1395
    1DIPC   NC324301  14.497  22.226   0.944  0.1739  0.3526 -0.0935
    1DIPC   PO424302  14.399  22.002   1.343  0.0405 -0.1563 -0.1785
    1DIPC   GL124303  14.526  21.962   1.829 -0.0247  0.1082  0.2028
    1DIPC   GL224304  14.520  21.611   2.065  0.0990 -0.2048  0.2521
    1DIPC   C1A24305  14.696  22.048   2.282  0.0335 -0.1505 -0.0870
    1DIPC   D2A24306  14.857  21.708   2.577 -0.2196 -0.4611 -0.1166
    1DIPC   D3A24307  14.759  21.842   3.007 -0.0229 -0.1136 -0.0076
    1DIPC   C4A24308  14.630  21.695   3.304 -0.4567  0.2406  0.1794
    1DIPC   C1B24309  14.953  21.340   2.259  0.0568  0.0087 -0.0153
    1DIPC   D2B24310  15.337  21.583   2.344  0.4033  0.0098  0.0134
    1DIPC   D3B24311  15.434  21.248   2.696  0.1201 -0.2083  0.0884
    1DIPC   C4B24312  15.057  21.327   2.871 -0.5118  0.1320  0.1672
    1DIPC   NC324313   5.374  28.170   2.207 -0.0423 -0.0458 -0.0436
    1DIPC   PO424314   5.109  28.480   2.310  0.2133 -0.3193  0.2207
    1DIPC   GL124315   5.030  28.459   2.719 -0.0008 -0.3362  0.2806
    1DIPC   GL224316   5.076  28.258   2.770 -0.1746  0.1420 -0.1315
    1DIPC   C1A24317   4.825  28.550   3.116 -0.3683 -0.0912 -0.0698
    1DIPC   D2A24318   4.703  28.459   3.465  0.3244 -0.0555 -0.1001
    1DIPC   D3A24319   5.139  28.237   3.384 -0.1300 -0.1324 -0.2429
    1DIPC   C4A24320   5.417  28.118   3.738  0.0834  0.2868 -0.0394
    1DIPC   C1B24321   5.499  28.403   3.020 -0.0065 -0.0880  0.0685
    1DIPC   D2B24322   5.672  28.467   3.435 -0.0720  0.2345  0.1051
    1DIPC   D3B24323   5.871  28.702   3.632 -0.4483  0.2192  0.1531
    1DIPC   C4B24324   5.756  28.859   4.090  0.1026 -0.0847  0.1497
    1DIPC   NC324325  16.597  25.104   1.589  0.0039  0.1266  0.0894
    1DIPC   PO424326  16.463  25.090   2.021 -0.0541 -0.0809  0.0969
    1DIPC   GL124327  16.537  24.813   2.205  0.1111 -0.2913  0.0485
    1DIPC   GL224328  16.806  24.648   2.076  0.2563  0.1284  0.1188
    1DIPC   C1A24329  16.414  24.525   2.518  0.2371  0.4405 -0.2480
    1DIPC   D2A24330  16.484  24.251   2.859 -0.0416 -0.1403  0.3615
    1DIPC   D3A24331  16.036  24.445   3.035 -0.3566  0.3497  0.0770
    1DIPC   C4A24332  16.018  24.639   3.457  0.3015  0.3360 -0.0001
    1DIPC   C1B24333  16.919  24.633   2.496 -0.4924  0.1356  0.0801
    1DIPC   D2B24334  17.030  24.337   2.853  0.3832  0.0590 -0.0546
    1DIPC   D3B24335  16.873  24.210   3.206 -0.1063 -0.1051  0.0226
    1DIPC   C4B24336  16.922  24.508   3.578 -0.1075  0.0778 -0.1471
    1DIPC   NC324337  17.021  28.138   2.778  0.0777 -0.0400  0.2857
    1DIPC   PO424338  17.454  28.222   2.918  0.0000  0.2008 -0.1058
    1DIPC   GL124339  17.469  28.113   3.325  0.0579 -0.0272  0.1381
    1DIPC   GL224340  17.626  27.810   3.349 -0.0703 -0.2594 -0.2501
    1DIPC   C1A24341  17.253  28.034   3.754 -0.1987 -0.0366  0.1487
    1DIPC   D2A24342  17.335  27.924   4.161  0.1571  0.1233 -0.1879
    1DIPC   D3A24343  17.467  28.179   4.392  0.0663  0.1897 -0.3877
    1DIPC   C4A24344  17.070  28.325   4.516 -0.4050  0.0971 -0.4740
    1DIPC   C1B24345  17.587  27.606   3.765  0.0035  0.4088  0.2420
    1DIPC   D2B24346  17.309  27.398   4.034  0.1996 -0.1978  0.3114
    1DIPC   D3B24347  17.638  27.475   4.307 -0.2988 -0.0204  0.2507
    1DIPC   C4B24348  17.781  27.092   4.654 -0.0994 -0.3565 -0.1888
    1DIPC   NC324349  12.101  13.010   2.484 -0.1238 -0.1904 -0.0973
    1DIPC   PO424350  12.593  13.132   2.495  0.1352  0.3261 -0.2230
    1DIPC   GL124351  12.514  13.210   2.911  0.2596  0.0878  0.3914
    1DIPC   GL224352  12.630  13.420   3.122  0.4242 -0.2434  0.1367
    1DIPC   C1A24353  12.202  13.197   3.231 -0.1510 -0.0079 -0.0816
    1DIPC   D2A24354  11.989  13.005   3.505  0.0901  0.1549  0.0339
    1DIPC   D3A24355  12.091  12.871   3.878  0.0308  0.0306  0.1975
    1DIPC   C4A24356  12.307  13.019   4.224  0.4360  0.0184 -0.0236
    1DIPC   C1B24357  12.948  13.364   3.429  0.0721  0.4133 -0.0179
    1DIPC   D2B24358  13.199  13.681   3.573  0.0185 -0.2949 -0.4578
    1DIPC   D3B24359  12.962  14.024   3.557  0.0150 -0.2480 -0.0343
    1DIPC   C4B24360  12.707  14.126   3.965  0.4906  0.0089  0.0645
    1DIPC   NC324361   4.423   3.829   3.269 -0.1313 -0.1661  0.0577
    1DIPC   PO424362   4.440   4.241   3.300 -0.2259 -0.1738 -0.0030
    1DIPC   GL124363   4.341   4.123   3.785  0.1151 -0.0301 -0.1168
    1DIPC   GL224364   3.964   4.028   3.814  0.1766 -0.1034 -0.0458
    1DIPC   C1A24365   4.336   4.279   4.190  0.1784  0.3139 -0.0031
    1DIPC   D2A24366   4.315   4.448   4.665 -0.0858  0.0590 -0.1247
    1DIPC   D3A24367   4.071   4.758   4.573 -0.0459  0.0193  0.0727
    1DIPC   C4A24368   4.298   4.810   4.123  0.3500  0.0221  0.1726
    1DIPC   C1B24369   3.829   4.135   4.313  0.3339 -0.3804  0.1598
    1DIPC   D2B24370   3.398   4.189   4.537 -0.0577 -0.0116 -0.1208
    1DIPC   D3B24371   3.659   3.811   4.690 -0.3323 -0.1036 -0.0434
    1DIPC   C4B24372   3.738   3.438   4.460 -0.1466  0.1251 -0.2734
    1DIPC   NC324373   6.622  18.909   2.025 -0.0055  0.1037 -0.1453
    1DIPC   PO424374   6.487  18.475   1.956 -0.2695 -0.0554 -0.2078
    1DIPC   GL124375   6.543  18.639   2.420 -0.1841 -0.3189 -0.0160
    1DIPC   GL224376   6.465  18.562   2.731  0.0734 -0.1672 -0.1281
    1DIPC   C1A24377   6.634  19.010   2.658 -0.0468 -0.1511 -0.0835
    1DIPC   D2A24378   6.546  19.298   2.963  0.0037 -0.0156 -0.4282
    1DIPC   D3A24379   6.681  19.208   3.261  0.2573 -0.1952 -0.0455
    1DIPC   C4A24380   6.713  19.334   3.649 -0.3717  0.0953 -0.1887
    1DIPC   C1B24381   6.357  18.822   3.068  0.3216 -0.1437 -0.0187
    1DIPC   D2B24382   6.116  19.132   3.309 -0.1518  0.1259 -0.2539
    1DIPC   D3B24383   6.268  19.535   3.460 -0.0909 -0.3508 -0.0108
    1DIPC   C4B24384   6.361  19.918   3.392  0.0416 -0.2748  0.0636
    1DIPC   NC324385   4.579   8.074   3.277  0.3806  0.1001  0.1481
    1DIPC   PO424386   4.960   7.773   3.323 -0.0107 -0.0585 -0.2823
    1DIPC   GL124387   4.881   8.105   3.719 -0.1304  0.2801 -0.1834
    1DIPC   GL224388   4.997   7.974   4.011  0.0486  0.0077  0.0628
    1DIPC   C1A24389   5.107   8.448   3.843 -0.0448 -0.1475  0.1776
    1DIPC   D2A24390   5.223   8.828   3.916  0.1600 -0.1560  0.2151
    1DIPC   D3A24391   4.758   8.706   4.026 -0.1596 -0.1063 -0.0642
    1DIPC   C4A24392   4.549   8.326   4.064  0.1815 -0.0793  0.0062
    1DIPC   C1B24393   5.025   8.215   4.308 -0.0235  0.0162  0.1118
    1DIPC   D2B24394   4.867   8.474   4.459 -0.2390 -0.1612 -0.0444
    1DIPC   D3B24395   4.342   8.484   4.470  0.1156 -0.1993  0.3255
    1DIPC   C4B24396   4.109   8.309   4.817  0.1284  0.1440 -0.0185
    1DIPC   NC324397  14.776  21.543   1.503 -0.2222  0.1846 -0.0159
    1DIPC   PO424398  14.814  21.117   1.608  0.1959 -0.0232  0.1194
    1DIPC   GL124399  14.505  20.999   1.804 -0.3858 -0.3447 -0.3738
    1DIPC   GL224400  14.192  20.941   1.835 -0.0586  0.1621 -0.1189
    1DIPC   C1A24401  14.563  21.070   2.271  0.3004 -0.2016 -0.1678
    1DIPC   D2A24402  14.564  21.310   2.621  0.0489  0.1559 -0.2237
    1DIPC   D3A24403  14.448  21.286   3.020  0.1673  0.4291 -0.1320
    1DIPC   C4A24404  14.764  21.103   3.376 -0.0324 -0.2753  0.4246
    1DIPC   C1B24405  13.967  20.696   2.140 -0.2765  0.0287  0.1655
    1DIPC   D2B24406  13.927  20.233   2.338 -0.3071  0.1671 -0.1436
    1DIPC   D3B24407  13.803  20.553   2.676 -0.1754 -0.1493 -0.0474
    1DIPC   C4B24408  13.763  20.943   2.615 -0.0951 -0.1799  0.0189
    1DIPC   NC324409   0.192  12.045   2.509  0.3838 -0.2661 -0.1755
    1DIPC   PO424410  29.829  11.675   2.591  0.0382 -0.0141 -0.0876
    1DIPC   GL124411  29.657  11.736   3.042 -0.0980 -0.1034  0.2831
    1DIPC   GL224412  29.507  11.462   3.289  0.0570 -0.1945 -0.0995
    1DIPC   C1A24413  29.775  11.856   3.468  0.1542 -0.0021  0.4937
    1DIPC   D2A24414  29.612  11.873   3.862 -0.0737 -0.1103 -0.0320
    1DIPC   D3A24415  29.770  11.844   4.268 -0.0619  0.0380  0.0128
    1DIPC   C4A24416  29.512  11.689   4.550  0.0642 -0.0936  0.1064
    1DIPC   C1B24417  29.474  11.393   3.821 -0.0630 -0.1753  0.0535
    1DIPC   D2B24418  29.154  11.638   4.002 -0.0024  0.0344  0.0830
    1DIPC   D3B24419  29.028  11.583   3.624  0.0643  0.1010 -0.1583
    1DIPC   C4B24420  28.665  11.476   3.487  0.2157 -0.0705 -0.0121
    1DIPC   NC324421   3.988  22.027   2.556  0.1353 -0.3144  0.0510
    1DIPC   PO424422   3.927  21.562   2.724  0.1461  0.3037 -0.1404
    1DIPC   GL124423   3.790  21.665   3.128  0.3709  0.1828 -0.1023
    1DIPC   GL224424   3.701  22.025   3.124  0.2166  0.1399 -0.2248
    1DIPC   C1A24425   3.678  21.614   3.529 -0.1530 -0.1157 -0.2826
    1DIPC   D2A24426   3.666  21.572   3.964  0.2252  0.1559  0.0514
    1DIPC   D3A24427   3.418  21.331   4.002 -0.2553 -0.3664  0.2290
    1DIPC   C4A24428   3.089  21.266   3.669 -0.0096 -0.1447 -0.1600
    1DIPC   C1B24429   4.019  22.056   3.414  0.0852 -0.3394  0.0019
    1DIPC   D2B24430   4.163  21.923   3.701  0.2885  0.0601  0.1691
    1DIPC   D3B24431   3.990  21.966   4.227 -0.2299  0.0976 -0.0351
    1DIPC   C4B24432   4.308  21.880   4.503  0.3329  0.3741 -0.0105
    1DIPC   NC324433   6.793   6.844   2.946  0.2333  0.0382  0.4161
    1DIPC   PO424434   6.442   6.568   2.869  0.1746  0.1265 -0.4414
    1DIPC   GL124435   6.356   6.341   3.288  0.0389 -0.1672  0.1743
    1DIPC   GL224436   6.367   6.681   3.490 -0.0912  0.3545 -0.0846
    1DIPC   C1A24437   6.457   6.156   3.653 -0.2005  0.0119 -0.0651
    1DIPC   D2A24438   6.475   6.243   4.159 -0.2291 -0.0543 -0.1500
    1DIPC   D3A24439   6.845   5.938   4.322 -0.0933  0.0742 -0.1707
    1DIPC   C4A24440   7.124   6.067   4.661  0.4548  0.2010 -0.0266
    1DIPC   C1B24441   6.324   6.760   3.934 -0.0013  0.1664  0.0158
    1DIPC   D2B24442   6.526   6.874   4.336  0.0902 -0.0229 -0.4002
    1DIPC   D3B24443   6.842   6.846   4.388  0.0649 -0.0003  0.1599
    1DIPC   C4B24444   7.104   6.873   4.779 -0.1412  0.0738 -0.1007
    1DIPC   NC324445  17.475  16.345   2.119 -0.0082  0.0193 -0.2354
    1DIPC   PO424446  17.738  16.081   2.221  0.0414 -0.1431 -0.4639
    1DIPC   GL124447  17.550  16.161   2.717  0.1875  0.0058  0.0153
    1DIPC   GL224448  17.222  16.274   2.913  0.0252 -0.3275 -0.0485
    1DIPC   C1A24449  17.631  16.105   3.153 -0.1403  0.2912  0.0096
    1DIPC   D2A24450  17.646  16.212   3.623  0.1338 -0.1742  0.0918
    1DIPC   D3A24451  17.208  16.468   3.688  0.0710  0.0924  0.0383
    1DIPC   C4A24452  17.057  16.639   4.035  0.1237  0.1377  0.1266
    1DIPC   C1B24453  17.045  16.515   3.189  0.2540 -0.1446  0.3078
    1DIPC   D2B24454  16.850  16.731   3.576 -0.2305 -0.0856 -0.1404
    1DIPC   D3B24455  17.209  16.934   3.636 -0.0126  0.0401  0.2819
    1DIPC   C4B24456  17.245  17.048   3.202  0.1194  0.0608 -0.0937
    1DIPC   NC324457   4.293  11.816   2.555  0.2835 -0.1159 -0.1193
    1DIPC   PO424458   4.313  11.390   2.707 -0.0647 -0.0836  0.0634
    1DIPC   GL124459   4.040  11.620   2.954  0.0866 -0.1690 -0.1387
    1DIPC   GL224460   3.957  11.984   3.002  0.0112  0.2165 -0.1804
    1DIPC   C1A24461   3.679  11.383   3.284 -0.1424  0.1374 -0.0125
    1DIPC   D2A24462   3.509  11.025   3.508  0.1216 -0.2309  0.1892
    1DIPC   D3A24463   3.157  10.708   3.511  0.0601 -0.3812  0.0502
    1DIPC   C4A24464   3.050  10.571   3.141  0.0930  0.0292 -0.0079
    1DIPC   C1B24465   3.796  11.884   3.428  0.2830  0.1000 -0.0261
    1DIPC   D2B24466   3.725  12.076   3.808 -0.0152  0.0195 -0.1390
    1DIPC   D3B24467   3.471  12.090   4.157 -0.0944  0.0034 -0.0280
    1DIPC   C4B24468   3.498  12.019   4.671 -0.2079  0.0046 -0.2484
    1DIPC   NC324469   7.359   5.476   2.258  0.3164  0.0453  0.2374
    1DIPC   PO424470   7.170   5.585   2.617 -0.2981  0.0789 -0.0844
    1DIPC   GL124471   7.031   5.725   3.057 -0.0874  0.3191 -0.1882
    1DIPC   GL224472   7.271   5.912   3.280  0.1330  0.0854  0.1054
    1DIPC   C1A24473   6.736   5.762   3.378  0.1557  0.0181 -0.0419
    1DIPC   D2A24474   6.817   5.753   3.820 -0.0349  0.1406 -0.3822
    1DIPC   D3A24475   6.397   5.754   3.998  0.0436  0.1119 -0.1511
    1DIPC   C4A24476   6.469   5.657   4.526 -0.1606  0.0686 -0.2569
    1DIPC   C1B24477   7.412   5.708   3.606 -0.1727 -0.0811 -0.2609
    1DIPC   D2B24478   7.305   5.448   3.960 -0.2563  0.1041 -0.1054
    1DIPC   D3B24479   7.029   5.267   3.656 -0.0449  0.1559 -0.1261
    1DIPC   C4B24480   6.769   4.881   3.638  0.0502  0.0042  0.2496
    1DIPC   NC324481   3.130   2.564   3.370 -0.0638  0.0723  0.1934
    1DIPC   PO424482   2.877   2.612   3.111 -0.0952  0.0914 -0.2531
    1DIPC   GL124483   2.509   2.576   3.361  0.0475  0.1493 -0.1617
    1DIPC   GL224484   2.696   2.628   3.616  0.0413  0.1580 -0.2785
    1DIPC   C1A24485   2.135   2.626   3.722  0.1203  0.3795 -0.2530
    1DIPC   D2A24486   1.851   2.787   3.937 -0.1936 -0.0525 -0.2353
    1DIPC   D3A24487   1.952   2.971   4.293  0.0168 -0.2361  0.1456
    1DIPC   C4A24488   1.796   3.338   4.388  0.2216 -0.0951  0.1884
    1DIPC   C1B24489   2.575   2.623   4.026  0.2653 -0.1920  0.2400
    1DIPC   D2B24490   2.280   2.592   4.365  0.0278 -0.1882 -0.0493
    1DIPC   D3B24491   2.741   2.645   4.516 -0.0803  0.1536 -0.1777
    1DIPC   C4B24492   2.924   2.854   4.327 -0.1291  0.0015 -0.0684
    1DIPC   NC324493  28.995  29.780   2.235  0.0452 -0.0550  0.1239
    1DIPC   PO424494  29.052  29.389   2.466 -0.0682 -0.2084 -0.1003
    1DIPC   GL124495  29.138  29.370   2.931 -0.0648 -0.1410 -0.2795
    1DIPC   GL224496  29.475  29.245   3.062 -0.2124 -0.3105 -0.0401
    1DIPC   C1A24497  29.090  29.448   3.387  0.0675  0.0302 -0.0042
    1DIPC   D2A24498  29.322  29.329   3.739 -0.1133  0.4605  0.1427
    1DIPC   D3A24499  29.352  29.656   3.943  0.1588 -0.0001 -0.2218
    1DIPC   C4A24500  29.398  29.654   4.362  0.0190  0.0924 -0.0635
    1DIPC   C1B24501  29.572  29.019   3.416 -0.1206 -0.3373  0.0823
    1DIPC   D2B24502  29.452  28.879   3.885 -0.1752  0.2616 -0.0483
    1DIPC   D3B24503  29.798  28.642   3.757  0.4616 -0.0119 -0.0214
    1DIPC   C4B24504   0.233  28.625   3.966 -0.1674  0.1437  0.2176
    1DIPC   NC324505  26.445   4.135   2.859 -0.0264  0.3918 -0.4120
    1DIPC   PO424506  26.088   3.972   3.046 -0.2518 -0.1144  0.0480
    1DIPC   GL124507  26.265   3.947   3.345 -0.2498  0.0586  0.0799
    1DIPC   GL224508  26.510   3.961   3.385 -0.2484  0.3288  0.0991
    1DIPC   C1A24509  26.257   4.273   3.719  0.4324  0.3477  0.1429
    1DIPC   D2A24510  26.317   4.615   3.692  0.1690 -0.1805  0.0740
    1DIPC   D3A24511  26.423   4.488   4.117 -0.0521  0.0264  0.2089
    1DIPC   C4A24512  26.902   4.567   4.154 -0.1425  0.1296 -0.0470
    1DIPC   C1B24513  26.424   3.809   3.795 -0.0537  0.0101  0.2345
    1DIPC   D2B24514  26.331   3.540   4.052 -0.1404 -0.3043 -0.2543
    1DIPC   D3B24515  26.641   3.563   4.447  0.3302 -0.0869  0.1636
    1DIPC   C4B24516  26.963   3.313   4.448  0.2349  0.0037 -0.0626
    1DIPC   NC324517  25.309   4.737   3.254 -0.0151 -0.1841  0.0058
    1DIPC   PO424518  25.087   4.808   3.633  0.1464  0.1981 -0.2351
    1DIPC   GL124519  24.950   5.021   3.950 -0.3989 -0.2278  0.0300
    1DIPC   GL224520  25.038   5.257   4.096  0.2733  0.2541 -0.0727
    1DIPC   C1A24521  24.670   5.046   4.294 -0.0144  0.0389 -0.0724
    1DIPC   D2A24522  24.305   5.073   4.327  0.0175  0.0553 -0.0284
    1DIPC   D3A24523  23.942   4.935   4.696 -0.0890  0.0999  0.0861
    1DIPC   C4A24524  24.130   4.855   5.085  0.2903  0.0812  0.2524
    1DIPC   C1B24525  24.801   5.483   4.435 -0.2898  0.1090 -0.1432
    1DIPC   D2B24526  24.893   5.799   4.728  0.1554  0.1972 -0.2151
    1DIPC   D3B24527  25.050   5.512   4.894  0.0216  0.1464 -0.0443
    1DIPC   C4B24528  24.870   5.295   5.240  0.3253  0.3127  0.2514
    1DIPC   NC324529  15.279   0.291   3.322 -0.0013 -0.1081  0.0431
    1DIPC   PO424530  15.186   0.745   3.485  0.1315 -0.0498  0.0758
    1DIPC   GL124531  15.146   0.744   3.899 -0.0122 -0.0996 -0.0328
    1DIPC   GL224532  14.890   0.854   4.096  0.0575 -0.0410  0.1153
    1DIPC   C1A24533  15.229   0.386   4.043  0.1817 -0.3359  0.1214
    1DIPC   D2A24534  15.499   0.269   4.415  0.0796  0.2890  0.0971
    1DIPC   D3A24535  15.946   0.370   4.474 -0.0715 -0.1200 -0.1376
    1DIPC   C4A24536  16.168   0.193   4.774  0.0935 -0.0170  0.2030
    1DIPC   C1B24537  15.116   0.642   4.445  0.2675  0.2520 -0.1326
    1DIPC   D2B24538  15.189   0.349   4.788 -0.0217  0.2150  0.1991
    1DIPC   D3B24539  15.012   0.321   5.191  0.0688  0.2022 -0.1341
    1DIPC   C4B24540  14.655   0.329   5.307 -0.0034  0.0674 -0.0590
    1DIPC   NC324541   7.326  25.966   1.929 -0.3215  0.1136 -0.1209
    1DIPC   PO424542   7.361  25.601   2.298 -0.1421 -0.1328 -0.1840
    1DIPC   GL124543   7.377  25.502   2.848 -0.0267 -0.1375  0.3539
    1DIPC   GL224544   7.096  25.348   3.030 -0.1300 -0.3289 -0.1160
    1DIPC   C1A24545   7.620  25.923   3.168  0.1915  0.0394  0.1895
    1DIPC   D2A24546   7.980  26.047   3.483  0.0993  0.1415 -0.2141
    1DIPC   D3A24547   7.841  26.349   3.137 -0.3955  0.0241 -0.0551
    1DIPC   C4A24548   8.151  26.806   3.092  0.0316  0.2537  0.0404
    1DIPC   C1B24549   6.985  25.241   3.447 -0.1750 -0.1195 -0.0050
    1DIPC   D2B24550   7.070  25.095   3.892  0.1792  0.3460  0.3261
    1DIPC   D3B24551   6.662  25.140   4.126 -0.2324 -0.1171 -0.0434
    1DIPC   C4B24552   6.707  25.692   4.286 -0.1165  0.0355  0.0513
    1DIPC   NC324553  16.446   0.690   3.685  0.0707 -0.0973  0.1727
    1DIPC   PO424554  16.353   0.146   3.765  0.1720  0.1980 -0.0410
    1DIPC   GL124555  16.457  29.668   3.900  0.1043  0.2755 -0.1936
    1DIPC   GL224556  16.446  29.551   4.185  0.1586  0.0130  0.1651
    1DIPC   C1A24557  16.074  29.295   4.037  0.0323 -0.4023  0.0068
    1DIPC   D2A24558  15.815  29.014   4.302 -0.2376  0.2698  0.1808
    1DIPC   D3A24559  15.724  29.095   4.687  0.1128 -0.0366  0.0609
    1DIPC   C4A24560  15.452  29.264   4.868 -0.1031  0.0711  0.0401
    1DIPC   C1B24561  16.882  29.287   4.290  0.0259  0.2033  0.0454
    1DIPC   D2B24562  16.892  28.813   4.514 -0.2427  0.2019 -0.0676
    1DIPC   D3B24563  16.953  28.674   4.945  0.0694 -0.0311  0.3477
    1DIPC   C4B24564  17.207  28.529   5.291  0.1902 -0.1272  0.0993
    1DIPC   NC324565   9.097  28.448   2.499  0.0258 -0.1858  0.2171
    1DIPC   PO424566   8.861  28.817   2.761  0.4100 -0.1399  0.0154
    1DIPC   GL124567   8.469  28.799   3.005 -0.0885  0.1962  0.0480
    1DIPC   GL224568   8.045  28.713   3.219 -0.0479 -0.4584 -0.0654
    1DIPC   C1A24569   8.506  28.862   3.494 -0.1212  0.2107 -0.0132
    1DIPC   D2A24570   8.229  29.128   3.784  0.0495 -0.0112  0.1478
    1DIPC   D3A24571   8.200  29.166   4.264  0.2341  0.2083  0.1994
    1DIPC   C4A24572   7.901  28.851   4.481 -0.0773 -0.0880 -0.0785
    1DIPC   C1B24573   8.126  28.469   3.568  0.3317 -0.0227  0.3154
    1DIPC   D2B24574   7.658  28.513   3.797 -0.0949 -0.0202  0.0709
    1DIPC   D3B24575   7.584  28.554   4.157 -0.0386 -0.0765 -0.1242
    1DIPC   C4B24576   7.299  28.765   4.407  0.1726 -0.2558 -0.1376
    1DIPC   NC324577  18.566  17.523   1.921  0.1822  0.1386 -0.0333
    1DIPC   PO424578  18.706  17.988   2.025 -0.1910  0.0146 -0.0179
    1DIPC   GL124579  18.884  17.916   2.423 -0.1043 -0.0065 -0.0223
    1DIPC   GL224580  18.722  18.214   2.537  0.0546  0.2557 -0.0706
    1DIPC   C1A24581  19.116  17.648   2.716  0.1987 -0.1603 -0.1416
    1DIPC   D2A24582  19.553  17.574   2.811 -0.2169 -0.1932  0.1268
    1DIPC   D3A24583  19.604  17.943   2.843 -0.2133 -0.2137 -0.0481
    1DIPC   C4A24584  20.065  18.135   2.841 -0.0438 -0.1653  0.0887
    1DIPC   C1B24585  18.741  18.437   2.798  0.2498 -0.4300  0.1196
    1DIPC   D2B24586  18.828  18.901   2.744  0.0646  0.0913 -0.1204
    1DIPC   D3B24587  18.930  18.995   3.196  0.0646  0.1483 -0.2190
    1DIPC   C4B24588  19.079  19.409   3.285 -0.1434 -0.1765  0.0001
    1DIPC   NC324589  10.861   4.273   3.865  0.1206  0.3579  0.0131
    1DIPC   PO424590  11.295   4.451   3.961  0.0560  0.1144 -0.1470
    1DIPC   GL124591  11.015   4.198   4.336 -0.2076  0.0677  0.0694
    1DIPC   GL224592  10.924   4.427   4.574 -0.1353 -0.1846 -0.0235
    1DIPC   C1A24593  10.748   3.960   4.684 -0.3030 -0.0121  0.2898
    1DIPC   D2A24594  10.518   3.755   5.050  0.2405  0.0572  0.0168
    1DIPC   D3A24595  10.234   3.758   5.386 -0.3741 -0.0690 -0.4811
    1DIPC   C4A24596  10.400   3.473   5.761 -0.0349  0.1213 -0.1031
    1DIPC   C1B24597  10.531   4.713   4.450  0.0572  0.1125 -0.0219
    1DIPC   D2B24598  10.281   4.898   4.734 -0.0062 -0.2888  0.2827
    1DIPC   D3B24599  10.423   4.485   4.887  0.0542  0.1748 -0.2938
    1DIPC   C4B24600  10.324   4.204   5.179 -0.3346 -0.1352 -0.1491
    1DIPC   NC324601  29.223   5.079   2.275  0.3748  0.1823  0.0501
    1DIPC   PO424602  29.482   5.166   2.637 -0.0489 -0.0659  0.1578
    1DIPC   GL124603  29.518   5.366   2.987  0.1139 -0.0467 -0.0941
    1DIPC   GL224604  29.614   5.691   2.945 -0.0143 -0.1128 -0.0353
    1DIPC   C1A24605  29.648   5.226   3.434 -0.1059 -0.0807 -0.0901
    1DIPC   D2A24606  29.554   4.798   3.609 -0.0609  0.0470 -0.3358
    1DIPC   D3A24607  29.349   4.694   3.962 -0.0933 -0.0130  0.2506
    1DIPC   C4A24608  29.336   4.516   4.366  0.0991 -0.0876 -0.0535
    1DIPC   C1B24609   0.136   5.609   3.275 -0.2465 -0.2041  0.0078
    1DIPC   D2B24610   0.517   5.401   3.048 -0.0584 -0.0558 -0.1115
    1DIPC   D3B24611   0.768   5.290   3.421  0.1177  0.0307 -0.2853
    1DIPC   C4B24612   0.593   5.336   3.801  0.0818  0.4192 -0.2980
    1DIPC   NC324613  26.756  27.889   2.147 -0.1693  0.1161 -0.0372
    1DIPC   PO424614  26.524  27.906   2.481 -0.1936 -0.4917 -0.0237
    1DIPC   GL124615  26.633  27.641   2.737 -0.3729  0.0215  0.1505
    1DIPC   GL224616  26.383  27.748   3.017  0.0554 -0.1738  0.3268
    1DIPC   C1A24617  26.898  27.610   3.068 -0.1628 -0.1305  0.2421
    1DIPC   D2A24618  27.193  27.377   3.316 -0.0869  0.1797  0.1851
    1DIPC   D3A24619  27.507  27.368   3.658 -0.2462 -0.4550 -0.2743
    1DIPC   C4A24620  27.416  27.353   4.165  0.1294  0.1607  0.3216
    1DIPC   C1B24621  26.321  27.887   3.439 -0.0376  0.0650  0.2129
    1DIPC   D2B24622  26.500  27.751   3.840  0.0173  0.0375  0.4269
    1DIPC   D3B24623  26.610  27.964   4.249 -0.2334 -0.0079 -0.0462
    1DIPC   C4B24624  26.945  28.231   4.406 -0.0730 -0.0611 -0.2754
    1DIPC   NC324625   7.923  10.327   2.922  0.1341  0.0734  0.1437
    1DIPC   PO424626   7.898   9.952   3.125  0.1223  0.0416  0.0397
    1DIPC   GL124627   8.041   9.915   3.619 -0.1187 -0.2055 -0.0694
    1DIPC   GL224628   8.366   9.787   3.619 -0.0494  0.0177  0.1147
    1DIPC   C1A24629   8.240  10.219   3.864 -0.0046  0.1300 -0.1620
    1DIPC   D2A24630   8.324  10.588   4.114 -0.2877  0.0725  0.3415
    1DIPC   D3A24631   8.128  10.745   4.528 -0.1816  0.1918  0.0896
    1DIPC   C4A24632   8.252  10.489   4.837  0.3619 -0.2004  0.0498
    1DIPC   C1B24633   8.799   9.840   3.702 -0.0113  0.2448  0.1044
    1DIPC   D2B24634   9.243   9.743   3.627 -0.0677 -0.0834  0.0565
    1DIPC   D3B24635   9.193   9.658   4.087  0.0862  0.2241 -0.3639
    1DIPC   C4B24636   8.749   9.830   4.220  0.1269  0.1396  0.1987
    1DIPC   NC324637  10.373  17.474   2.092 -0.1710 -0.1167 -0.3304
    1DIPC   PO424638  10.633  17.234   2.425 -0.5307 -0.0456  0.1164
    1DIPC   GL124639  10.513  17.186   2.903 -0.1872 -0.0681  0.1171
    1DIPC   GL224640  10.445  16.873   3.171 -0.0934 -0.2106 -0.1907
    1DIPC   C1A24641  10.861  17.096   3.291 -0.0640 -0.4137  0.1978
    1DIPC   D2A24642  10.938  17.411   3.624 -0.1345  0.0898 -0.2188
    1DIPC   D3A24643  11.386  17.225   3.683  0.2414 -0.1298  0.1046
    1DIPC   C4A24644  11.644  17.521   3.692 -0.0776  0.2447 -0.1272
    1DIPC   C1B24645  10.137  16.621   3.391  0.0251  0.2048  0.1368
    1DIPC   D2B24646   9.793  16.652   3.666  0.1864  0.2397  0.0372
    1DIPC   D3B24647  10.034  16.302   3.925  0.2171  0.1450  0.0902
    1DIPC   C4B24648  10.237  16.529   4.314  0.1385 -0.0686 -0.1696
    1DIPC   NC324649   7.995   2.616   2.670 -0.0265 -0.1375  0.1519
    1DIPC   PO424650   7.740   2.471   3.056  0.3103 -0.1399  0.3510
    1DIPC   GL124651   7.429   2.633   3.405  0.2015  0.2546  0.3944
    1DIPC   GL224652   7.385   3.061   3.504  0.2793 -0.2048  0.2037
    1DIPC   C1A24653   7.256   2.367   3.718  0.0248 -0.0245  0.1178
    1DIPC   D2A24654   7.110   2.133   4.085 -0.2074 -0.0537  0.0235
    1DIPC   D3A24655   6.963   2.181   4.513 -0.0638 -0.0535 -0.0132
    1DIPC   C4A24656   6.579   2.297   4.780  0.2032  0.0492 -0.0773
    1DIPC   C1B24657   7.236   2.858   3.806 -0.0759  0.1366 -0.4234
    1DIPC   D2B24658   7.026   2.647   4.118  0.1093 -0.0635 -0.0898
    1DIPC   D3B24659   6.805   2.616   4.468 -0.0965  0.0577 -0.2753
    1DIPC   C4B24660   6.568   2.963   4.760 -0.1590 -0.2182 -0.0510
    1DIPC   NC324661   0.279  14.249   2.753 -0.3518 -0.0836  0.3583
    1DIPC   PO424662   0.458  14.638   2.687 -0.0946 -0.1300 -0.1081
    1DIPC   GL124663   0.659  14.639   3.107 -0.4105  0.0566  0.1590
    1DIPC   GL224664   0.979  14.749   3.046 -0.0113  0.3320 -0.0142
    1DIPC   C1A24665   0.453  14.683   3.520 -0.2831  0.0402 -0.0486
    1DIPC   D2A24666   0.077  14.890   3.624  0.0435  0.0244 -0.1064
    1DIPC   D3A24667   0.093  14.740   4.015  0.2331 -0.1111  0.1376
    1DIPC   C4A24668  29.652  14.458   4.210 -0.1339  0.0915  0.3490
    1DIPC   C1B24669   0.935  14.471   3.482 -0.0779 -0.2668 -0.3132
    1DIPC   D2B24670   0.620  14.208   3.707  0.1213  0.2532  0.0730
    1DIPC   D3B24671   0.333  13.929   3.488  0.2104  0.1007 -0.1256
    1DIPC   C4B24672   0.021  13.844   3.762  0.0846  0.1367  0.1230
    1DIPC   NC324673  29.116   9.655   3.016  0.1006  0.5405 -0.4303
    1DIPC   PO424674  29.189   9.329   2.742 -0.0379 -0.0312  0.2430
    1DIPC   GL124675  29.147   9.109   3.151 -0.2517 -0.1331  0.1043
    1DIPC   GL224676  29.483   9.217   3.238 -0.1750  0.2230 -0.0968
    1DIPC   C1A24677  29.150   9.030   3.622  0.1100 -0.1582 -0.0800
    1DIPC   D2A24678  28.857   8.990   3.936 -0.1366  0.2320 -0.2376
    1DIPC   D3A24679  29.166   8.690   4.061 -0.2301  0.1069  0.0856
    1DIPC   C4A24680  29.032   8.306   4.096 -0.0169 -0.1794  0.0540
    1DIPC   C1B24681  29.357   9.457   3.535 -0.1775  0.3660 -0.0952
    1DIPC   D2B24682  29.233   9.730   3.871  0.0515  0.1110  0.2642
    1DIPC   D3B24683  28.854   9.716   4.082 -0.1209  0.0654  0.1098
    1DIPC   C4B24684  28.630   9.375   4.182 -0.0337  0.1917 -0.0166
    1DIPC   NC324685   8.384  10.787   3.509 -0.3509 -0.0826  0.0922
    1DIPC   PO424686   8.696  10.435   3.265  0.2630 -0.0991 -0.1313
    1DIPC   GL124687   8.690  10.348   3.689 -0.2288 -0.0041 -0.0836
    1DIPC   GL224688   9.104  10.356   3.730 -0.0357 -0.0315  0.1725
    1DIPC   C1A24689   8.723  10.297   4.113 -0.0150 -0.1278  0.0778
    1DIPC   D2A24690   8.395  10.190   4.456  0.1899 -0.0236  0.0747
    1DIPC   D3A24691   8.242   9.833   4.174  0.1541 -0.1340  0.1806
    1DIPC   C4A24692   7.745   9.821   4.185  0.1521  0.0383 -0.1377
    1DIPC   C1B24693   9.169  10.213   4.213 -0.0523 -0.2398  0.2725
    1DIPC   D2B24694   9.140   9.922   4.555 -0.0116 -0.1500 -0.4922
    1DIPC   D3B24695   9.416   9.776   4.967 -0.0480  0.1913  0.0826
    1DIPC   C4B24696   9.843   9.801   4.957 -0.1855  0.0071  0.0088
    1DIPC   NC324697  28.065  13.977   3.069  0.0217 -0.0225  0.2184
    1DIPC   PO424698  27.916  13.552   3.219 -0.0596  0.0289 -0.2719
    1DIPC   GL124699  27.841  13.473   3.598  0.2459  0.3238  0.1562
    1DIPC   GL224700  28.128  13.319   3.719  0.3291 -0.1055  0.3284
    1DIPC   C1A24701  27.503  13.627   3.867 -0.2423  0.2176 -0.2024
    1DIPC   D2A24702  27.582  13.596   4.329 -0.2204 -0.0233 -0.1375
    1DIPC   D3A24703  27.572  13.886   4.658  0.5105  0.0568  0.2781
    1DIPC   C4A24704  27.267  14.194   4.770  0.1502  0.1269  0.0076
    1DIPC   C1B24705  28.444  13.417   3.838 -0.0300 -0.0967  0.0425
    1DIPC   D2B24706  28.663  13.571   4.043 -0.1337  0.1936 -0.2854
    1DIPC   D3B24707  28.595  13.573   4.483  0.0773  0.0435 -0.0248
    1DIPC   C4B24708  28.259  13.175   4.575 -0.1545  0.1298  0.0847
    1DIPC   NC324709  23.335  29.200   2.756 -0.2201 -0.3758 -0.0439
    1DIPC   PO424710  23.702  29.089   3.058 -0.1706 -0.2698  0.0594
    1DIPC   GL124711  23.680  29.075   3.579 -0.2241 -0.1705  0.3284
    1DIPC   GL224712  23.399  29.096   3.734 -0.0772  0.2109  0.0833
    1DIPC   C1A24713  23.854  29.019   3.998 -0.3301  0.1446 -0.1704
    1DIPC   D2A24714  23.734  29.202   4.383 -0.0891 -0.1584  0.2410
    1DIPC   D3A24715  23.398  29.249   4.389 -0.0497  0.2543 -0.0055
    1DIPC   C4A24716  22.976  29.406   4.325 -0.0943 -0.2736  0.0683
    1DIPC   C1B24717  23.421  28.798   4.100 -0.0958 -0.1841 -0.2440
    1DIPC   D2B24718  23.524  28.796   4.565 -0.1438  0.2070 -0.0957
    1DIPC   D3B24719  23.193  28.955   4.710 -0.0250 -0.1312  0.2986
    1DIPC   C4B24720  22.922  28.718   4.990  0.1405  0.1289 -0.0926
    1DIPC   NC324721   9.874  24.540   2.042  0.2097  0.0802 -0.0972
    1DIPC   PO424722  10.115  24.950   1.809 -0.1138  0.3436  0.0292
    1DIPC   GL124723  10.210  24.861   2.301 -0.3106  0.0737  0.0934
    1DIPC   GL224724   9.922  24.879   2.376  0.0008  0.1143  0.2473
    1DIPC   C1A24725  10.310  25.121   2.664 -0.3966 -0.1174  0.4627
    1DIPC   D2A24726  10.691  25.391   2.769  0.2105 -0.1353  0.0899
    1DIPC   D3A24727  10.483  25.280   3.157 -0.0868 -0.2245 -0.2773
    1DIPC   C4A24728  10.082  25.472   2.938 -0.2175  0.2458 -0.3281
    1DIPC   C1B24729  10.149  24.667   2.738  0.0547  0.0269 -0.1063
    1DIPC   D2B24730  10.137  24.151   2.922 -0.1993  0.0853  0.1434
    1DIPC   D3B24731  10.063  23.994   3.272 -0.3633 -0.0159 -0.0989
    1DIPC   C4B24732  10.175  23.628   3.288 -0.0996 -0.3528  0.1516
    1DIPC   NC324733  28.195  10.783   2.276  0.1627 -0.0837 -0.0709
    1DIPC   PO424734  28.327  10.918   2.596  0.3186 -0.0266  0.0278
    1DIPC   GL124735  28.071  11.045   3.025 -0.0885 -0.0557  0.0006
    1DIPC   GL224736  27.794  11.068   2.916 -0.1731  0.0543 -0.4468
    1DIPC   C1A24737  27.938  10.894   3.450 -0.2975  0.1518  0.0870
    1DIPC   D2A24738  27.650  10.759   3.778 -0.1482  0.1151  0.1215
    1DIPC   D3A24739  27.296  10.529   3.914 -0.0861  0.1219  0.0717
    1DIPC   C4A24740  27.274  10.290   4.295  0.1281 -0.1804 -0.1238
    1DIPC   C1B24741  27.500  10.810   3.240 -0.0795  0.0788  0.4395
    1DIPC   D2B24742  27.348  10.611   3.420  0.1061  0.0927 -0.1176
    1DIPC   D3B24743  27.576  10.198   3.661 -0.0999  0.2655  0.1762
    1DIPC   C4B24744  27.335   9.958   3.922 -0.0876 -0.1277  0.1453
    1DIPC   NC324745  13.718  26.636   2.007  0.0908 -0.1410  0.1448
    1DIPC   PO424746  13.715  26.669   2.460  0.0425 -0.1628 -0.1557
    1DIPC   GL124747  13.658  26.610   2.902  0.1382  0.2444 -0.2987
    1DIPC   GL224748  13.961  26.722   3.024  0.1435 -0.0192 -0.0129
    1DIPC   C1A24749  13.728  26.258   3.100 -0.2318  0.5321 -0.3926
    1DIPC   D2A24750  13.765  26.171   3.584  0.2765  0.3322  0.2635
    1DIPC   D3A24751  13.728  25.788   3.411  0.0109 -0.0061  0.0960
    1DIPC   C4A24752  14.026  25.578   3.370 -0.2163 -0.0017 -0.0952
    1DIPC   C1B24753  14.053  26.504   3.405 -0.0279 -0.2907  0.1442
    1DIPC   D2B24754  14.299  26.518   3.891 -0.1443  0.3131  0.2275
    1DIPC   D3B24755  13.890  26.437   4.039 -0.1573  0.0285  0.1326
    1DIPC   C4B24756  13.844  26.007   4.027  0.4177  0.2337 -0.0536
    1DIPC   NC324757  17.949   1.722   4.121 -0.0249 -0.0827  0.0672
    1DIPC   PO424758  18.361   1.600   3.920  0.1763  0.1055  0.3241
    1DIPC   GL124759  18.611   1.636   4.387 -0.0849  0.0301 -0.1255
    1DIPC   GL224760  18.697   1.869   4.438 -0.1503 -0.1329 -0.2159
    1DIPC   C1A24761  18.517   1.529   4.830 -0.0245 -0.1765 -0.0293
    1DIPC   D2A24762  18.420   1.274   5.156  0.1544  0.2786  0.3237
    1DIPC   D3A24763  18.538   1.615   5.372 -0.0235 -0.3394 -0.0480
    1DIPC   C4A24764  18.694   1.652   5.819 -0.0167 -0.2420  0.1114
    1DIPC   C1B24765  19.000   1.873   4.666 -0.0826  0.1100  0.0664
    1DIPC   D2B24766  18.937   1.626   4.999 -0.0243  0.0783  0.0326
    1DIPC   D3B24767  18.934   1.329   5.375 -0.0771  0.0726  0.0397
    1DIPC   C4B24768  19.124   1.491   5.772 -0.2177  0.3189 -0.0012
    1DIPC   NC324769   6.643   1.496   2.463 -0.0666  0.1964  0.1813
    1DIPC   PO424770   6.221   1.170   2.553  0.2893  0.3148  0.0373
    1DIPC   GL124771   6.386   1.105   2.960  0.0560  0.0294 -0.5624
    1DIPC   GL224772   6.501   1.383   3.068 -0.0172 -0.2820 -0.0677
    1DIPC   C1A24773   6.206   0.849   3.284 -0.1527  0.1294  0.1525
    1DIPC   D2A24774   5.935   0.675   3.592  0.1165 -0.1006 -0.1984
    1DIPC   D3A24775   6.291   0.688   3.964  0.0461  0.2504  0.1382
    1DIPC   C4A24776   6.612   0.813   3.693 -0.0014  0.3226  0.1494
    1DIPC   C1B24777   6.392   1.372   3.482  0.2105 -0.0050  0.1765
    1DIPC   D2B24778   6.103   1.138   3.779 -0.0271 -0.0221  0.1802
    1DIPC   D3B24779   5.980   1.264   4.155 -0.2380  0.2160 -0.4055
    1DIPC   C4B24780   5.678   1.028   4.393  0.0461 -0.2250  0.4436
    1DIPC   NC324781  13.043  21.550   1.639  0.1237  0.0723 -0.1542
    1DIPC   PO424782  12.586  21.451   1.660 -0.1240 -0.1502  0.2803
    1DIPC   GL124783  12.782  21.434   2.069  0.1141 -0.0991 -0.0529
    1DIPC   GL224784  13.075  21.454   2.149 -0.0974  0.1962  0.0194
    1DIPC   C1A24785  12.633  21.253   2.457 -0.3764  0.1530  0.2150
    1DIPC   D2A24786  12.278  21.348   2.607  0.0428 -0.0530  0.2194
    1DIPC   D3A24787  12.447  21.630   2.837  0.2459  0.2992  0.1540
    1DIPC   C4A24788  12.480  21.402   3.254  0.1151 -0.0026  0.6069
    1DIPC   C1B24789  13.002  20.979   2.220 -0.0683  0.3152  0.1274
    1DIPC   D2B24790  12.755  20.710   2.491 -0.6817  0.1291 -0.0123
    1DIPC   D3B24791  12.839  21.106   2.859  0.5077  0.0773 -0.0500
    1DIPC   C4B24792  12.882  20.990   3.269 -0.1135 -0.0063  0.1525
    1DIPC   NC324793  18.928   8.424   2.621  0.3295  0.1188 -0.1834
    1DIPC   PO424794  19.135   8.414   3.150 -0.0906  0.0330  0.1296
    1DIPC   GL124795  19.049   8.724   3.599 -0.0841  0.0542 -0.1982
    1DIPC   GL224796  19.323   8.501   3.781 -0.0262 -0.0851 -0.0772
    1DIPC   C1A24797  18.891   9.024   3.908  0.1214  0.1138  0.2622
    1DIPC   D2A24798  18.817   9.339   4.240  0.2257 -0.0986  0.1102
    1DIPC   D3A24799  18.773   9.277   4.680  0.0623  0.0048 -0.0035
    1DIPC   C4A24800  18.587   9.294   5.084  0.0974 -0.2177  0.0552
    1DIPC   C1B24801  19.229   8.759   4.103 -0.1410  0.0654 -0.2145
    1DIPC   D2B24802  19.245   9.080   4.327 -0.0056  0.0274  0.3273
    1DIPC   D3B24803  19.233   9.327   4.785  0.1724 -0.0014  0.0894
    1DIPC   C4B24804  19.040   9.619   4.985 -0.2170 -0.1419  0.1555
    1DIPC   NC324805  13.589  23.885   1.647 -0.0432 -0.1844  0.0079
    1DIPC   PO424806  13.941  24.225   1.518 -0.1557 -0.1868 -0.0921
    1DIPC   GL124807  13.889  24.119   2.012  0.0241 -0.0584  0.1007
    1DIPC   GL224808  14.000  24.325   2.139 -0.1277  0.1214  0.0087
    1DIPC   C1A24809  13.747  23.847   2.331  0.1095 -0.0731  0.1996
    1DIPC   D2A24810  13.724  23.516   2.753 -0.1421 -0.2121  0.1419
    1DIPC   D3A24811  13.829  23.135   2.692 -0.1973 -0.0728  0.1698
    1DIPC   C4A24812  14.249  23.015   2.614  0.3115 -0.3454  0.2288
    1DIPC   C1B24813  13.952  24.217   2.578 -0.0689 -0.1565  0.1514
    1DIPC   D2B24814  14.065  24.363   2.911  0.3323  0.2387  0.1345
    1DIPC   D3B24815  13.795  23.946   3.018 -0.0694  0.4736 -0.0901
    1DIPC   C4B24816  13.723  23.651   3.407 -0.1462 -0.1720  0.0520
    1DIPC   NC324817   0.339  20.157   2.105  0.1041  0.0106  0.1094
    1DIPC   PO424818   0.452  19.751   2.354  0.2138  0.0786 -0.0368
    1DIPC   GL124819   0.627  19.799   2.839 -0.2116 -0.4825 -0.2672
    1DIPC   GL224820   0.674  20.102   2.874 -0.1055  0.0221 -0.0945
    1DIPC   C1A24821   0.690  19.613   3.253  0.0143  0.3629  0.1624
    1DIPC   D2A24822   0.967  19.379   3.456  0.3059  0.1994 -0.1463
    1DIPC   D3A24823   0.601  19.300   3.849  0.0238  0.1533 -0.0869
    1DIPC   C4A24824   0.821  19.094   4.150  0.2954  0.3468  0.1251
    1DIPC   C1B24825   0.673  20.123   3.312 -0.0412  0.4645  0.0198
    1DIPC   D2B24826   0.992  20.203   3.667  0.1717 -0.0277  0.0392
    1DIPC   D3B24827   1.225  20.153   3.957 -0.1133 -0.0488 -0.0042
    1DIPC   C4B24828   1.345  20.542   4.177 -0.3681  0.0607  0.0432
    1DIPC   NC324829   1.695   4.327   2.885 -0.1056  0.1959 -0.1501
    1DIPC   PO424830   2.187   4.340   2.893  0.2168  0.0407  0.4192
    1DIPC   GL124831   2.136   4.351   3.375  0.1787 -0.1499  0.1407
    1DIPC   GL224832   1.960   4.127   3.476  0.0878 -0.0292 -0.0241
    1DIPC   C1A24833   1.906   4.575   3.652  0.0180  0.0015 -0.0323
    1DIPC   D2A24834   1.683   4.608   4.052  0.1163  0.0024 -0.2182
    1DIPC   D3A24835   2.153   4.725   4.186 -0.2163 -0.0122 -0.0833
    1DIPC   C4A24836   2.368   4.750   3.843 -0.0014  0.1944  0.3843
    1DIPC   C1B24837   2.226   4.273   3.857  0.2726 -0.0977  0.2188
    1DIPC   D2B24838   2.040   4.279   4.288  0.1230 -0.1222 -0.1580
    1DIPC   D3B24839   1.812   4.583   4.515 -0.1127 -0.1634  0.1938
    1DIPC   C4B24840   1.732   4.620   4.959  0.2455 -0.1543  0.1184
    1DIPC   NC324841  27.721  18.570   2.839 -0.0314  0.1007 -0.1182
    1DIPC   PO424842  27.863  18.231   2.948  0.0404  0.0694  0.1223
    1DIPC   GL124843  27.868  18.066   3.337  0.3480  0.0321  0.0032
    1DIPC   GL224844  27.877  17.767   3.492 -0.3796 -0.2899  0.2303
    1DIPC   C1A24845  27.948  18.172   3.716  0.2906  0.1771  0.0341
    1DIPC   D2A24846  27.728  18.176   4.131  0.1489  0.0626  0.0380
    1DIPC   D3A24847  27.999  18.438   4.359 -0.1209  0.0686  0.1161
    1DIPC   C4A24848  28.409  18.326   4.469  0.0324  0.0393 -0.2192
    1DIPC   C1B24849  27.730  17.725   3.903  0.2803  0.3389  0.0393
    1DIPC   D2B24850  27.801  17.585   4.253 -0.0484 -0.0455  0.1007
    1DIPC   D3B24851  28.007  17.867   4.559 -0.1794 -0.1050  0.0970
    1DIPC   C4B24852  28.538  17.823   4.542 -0.0875  0.2348  0.2406
    1DIPC   NC324853   3.585  24.006   1.852  0.0047  0.2789 -0.1308
    1DIPC   PO424854   3.256  23.792   2.112 -0.2728 -0.1452 -0.2722
    1DIPC   GL124855   3.302  23.824   2.543 -0.1956  0.0705  0.2853
    1DIPC   GL224856   3.202  23.488   2.656 -0.2893  0.0802 -0.0408
    1DIPC   C1A24857   3.714  23.677   2.876  0.2649  0.1097 -0.0226
    1DIPC   D2A24858   4.050  23.730   3.103  0.2600  0.2146  0.3687
    1DIPC   D3A24859   3.700  23.980   3.373 -0.1724 -0.0491 -0.2679
    1DIPC   C4A24860   3.617  23.887   3.847  0.0124 -0.2998  0.1258
    1DIPC   C1B24861   3.345  23.210   3.004  0.2702  0.2412  0.0294
    1DIPC   D2B24862   3.502  23.389   3.458 -0.0939 -0.1606  0.0390
    1DIPC   D3B24863   3.740  23.356   3.820  0.0634  0.2020 -0.1516
    1DIPC   C4B24864   3.911  23.203   4.179 -0.0240 -0.2870  0.1979
    1DIPC   NC324865  11.610  15.286   2.596  0.1191  0.1518 -0.0678
    1DIPC   PO424866  11.350  15.602   2.512  0.2465 -0.1430  0.4487
    1DIPC   GL124867  11.373  15.604   2.958  0.2300 -0.0577  0.1366
    1DIPC   GL224868  11.050  15.699   3.031  0.1419 -0.3097  0.1655
    1DIPC   C1A24869  11.683  15.592   3.287 -0.1293  0.0135 -0.2235
    1DIPC   D2A24870  11.805  15.898   3.649 -0.0998  0.3468  0.0956
    1DIPC   D3A24871  11.836  15.956   4.072 -0.1026  0.0474  0.0050
    1DIPC   C4A24872  11.910  16.424   4.214  0.0130  0.4495 -0.2444
    1DIPC   C1B24873  11.178  15.449   3.400 -0.2074  0.0096  0.1061
    1DIPC   D2B24874  11.293  15.572   3.805 -0.2311 -0.2163 -0.1217
    1DIPC   D3B24875  11.006  15.322   4.150  0.0274  0.1288 -0.0627
    1DIPC   C4B24876  10.787  15.481   4.548 -0.1121  0.1962  0.1641
    1DIPC   NC324877   3.810  14.616   2.909  0.2290 -0.2047 -0.0282
    1DIPC   PO424878   3.436  14.835   2.564 -0.2560 -0.0937 -0.2204
    1DIPC   GL124879   3.394  14.883   3.047 -0.3356 -0.1580 -0.3079
    1DIPC   GL224880   3.452  14.606   3.257 -0.1451 -0.1204  0.0525
    1DIPC   C1A24881   3.347  15.049   3.480 -0.0202  0.0051  0.1918
    1DIPC   D2A24882   3.606  15.093   3.814  0.1903  0.1656  0.0448
    1DIPC   D3A24883   3.268  15.103   4.040  0.2268  0.1597  0.1266
    1DIPC   C4A24884   3.135  14.708   3.843 -0.1605  0.1600 -0.2443
    1DIPC   C1B24885   3.654  14.569   3.647  0.0634  0.0795  0.2071
    1DIPC   D2B24886   4.022  14.804   3.752  0.1183  0.1094 -0.2978
    1DIPC   D3B24887   4.149  14.366   3.605 -0.2099 -0.1813 -0.1937
    1DIPC   C4B24888   3.874  14.191   3.343  0.1695  0.0069  0.1137
    1DIPC   NC324889  25.620   5.291   2.585 -0.0416  0.0499 -0.0181
    1DIPC   PO424890  25.298   5.086   2.775 -0.1224 -0.0432 -0.2210
    1DIPC   GL124891  25.585   5.185   3.071  0.4177  0.0607 -0.1170
    1DIPC   GL224892  25.754   4.877   3.255  0.2566  0.2943  0.0388
    1DIPC   C1A24893  25.765   5.395   3.439  0.5154  0.3572 -0.0314
    1DIPC   D2A24894  26.054   5.531   3.706 -0.1980  0.1468 -0.2572
    1DIPC   D3A24895  25.948   5.412   4.041  0.1524 -0.0818  0.0033
    1DIPC   C4A24896  25.842   5.596   4.369 -0.0539  0.1032  0.0259
    1DIPC   C1B24897  25.735   4.931   3.723  0.0689  0.0040 -0.1214
    1DIPC   D2B24898  25.454   4.898   3.998  0.0743 -0.1884 -0.1143
    1DIPC   D3B24899  25.534   5.178   4.217  0.0225 -0.0715  0.1245
    1DIPC   C4B24900  25.629   5.248   4.681 -0.1018  0.2070  0.1342
    1DIPC   NC324901  20.578  21.961   2.334  0.2780  0.1081  0.5190
    1DIPC   PO424902  20.985  21.830   2.300 -0.1007  0.0773  0.0101
    1DIPC   GL124903  20.776  21.722   2.729  0.1221  0.3166 -0.2118
    1DIPC   GL224904  20.897  21.798   3.020  0.1625  0.3860 -0.1618
    1DIPC   C1A24905  20.478  21.513   3.104  0.1525  0.0666 -0.0284
    1DIPC   D2A24906  20.225  21.343   3.540 -0.0075  0.1231 -0.1824
    1DIPC   D3A24907  20.005  20.911   3.523  0.2143  0.3433 -0.1720
    1DIPC   C4A24908  19.684  20.835   3.813  0.0754  0.3005  0.0135
    1DIPC   C1B24909  20.530  21.981   3.179  0.0145  0.1312  0.0993
    1DIPC   D2B24910  20.343  22.368   3.357  0.0915 -0.0443  0.1677
    1DIPC   D3B24911  20.079  22.116   3.623 -0.1580 -0.1107 -0.0094
    1DIPC   C4B24912  20.033  21.826   3.993  0.2543 -0.1453  0.0188
    1DIPC   NC324913   2.956  27.525   1.752  0.4126  0.0937 -0.0407
    1DIPC   PO424914   3.329  27.758   1.740  0.0191  0.2316 -0.1562
    1DIPC   GL124915   3.496  27.807   2.226 -0.0243 -0.1471  0.2879
    1DIPC   GL224916   3.796  27.973   2.331 -0.2274  0.0022  0.0989
    1DIPC   C1A24917   3.406  27.479   2.586 -0.0638 -0.3119  0.0200
    1DIPC   D2A24918   3.234  27.703   3.026  0.0510  0.4522 -0.0902
    1DIPC   D3A24919   2.791  27.740   3.298  0.3843 -0.2082 -0.0103
    1DIPC   C4A24920   2.575  28.119   3.411 -0.1548 -0.2033  0.1358
    1DIPC   C1B24921   3.918  28.047   2.596  0.2426 -0.2401  0.2390
    1DIPC   D2B24922   3.645  27.936   2.971  0.1344 -0.0191  0.3536
    1DIPC   D3B24923   3.778  28.402   2.973 -0.1302 -0.0649 -0.1504
    1DIPC   C4B24924   3.712  28.721   3.374  0.2468  0.0853  0.0912
    1DIPC   NC324925   0.734  24.690   2.224  0.1570  0.3369 -0.3825
    1DIPC   PO424926   0.394  24.350   2.392 -0.0532 -0.1513 -0.1775
    1DIPC   GL124927   0.583  24.088   2.590  0.3686  0.0034  0.0743
    1DIPC   GL224928   0.383  23.801   2.639 -0.2436 -0.1686 -0.1186
    1DIPC   C1A24929   0.939  23.962   2.805 -0.2205  0.0481  0.0589
    1DIPC   D2A24930   1.167  24.107   3.138 -0.1388  0.3435 -0.0066
    1DIPC   D3A24931   1.059  24.399   3.386 -0.1686  0.0316 -0.0561
    1DIPC   C4A24932   0.888  24.287   3.807 -0.2772 -0.2347  0.1673
    1DIPC   C1B24933   0.438  23.863   3.035  0.0242 -0.0427  0.0736
    1DIPC   D2B24934   0.715  23.961   3.326  0.0442  0.0758 -0.0045
    1DIPC   D3B24935   0.660  24.342   3.039  0.0132 -0.0575  0.0441
    1DIPC   C4B24936   0.991  24.485   2.750  0.1967 -0.1980 -0.4661
    1DIPC   NC324937   7.968  27.883   1.914  0.0132  0.0750  0.0231
    1DIPC   PO424938   7.699  27.991   2.266  0.2127  0.1904 -0.2086
    1DIPC   GL124939   7.525  27.882   2.685  0.0606 -0.0318 -0.2342
    1DIPC   GL224940   7.543  27.620   2.952  0.1058 -0.1501 -0.0375
    1DIPC   C1A24941   7.400  28.085   3.016  0.2106  0.0356 -0.0048
    1DIPC   D2A24942   7.388  28.335   3.369 -0.2261  0.1545 -0.2012
    1DIPC   D3A24943   6.989  28.381   3.560 -0.2723 -0.2115 -0.1018
    1DIPC   C4A24944   7.062  28.440   4.098 -0.1130  0.0766  0.0079
    1DIPC   C1B24945   7.175  27.643   3.043 -0.1937 -0.0241 -0.0150
    1DIPC   D2B24946   6.922  27.484   3.373 -0.1963  0.0528 -0.1000
    1DIPC   D3B24947   6.911  27.679   3.785 -0.0217 -0.1496  0.1895
    1DIPC   C4B24948   7.051  27.265   3.952 -0.1340  0.0864 -0.0145
    1DIPC   NC324949   4.692   9.703   2.942 -0.1177 -0.0268  0.1982
    1DIPC   PO424950   4.298   9.568   3.066  0.0941  0.3475 -0.0843
    1DIPC   GL124951   4.093   9.692   3.480  0.0608 -0.4195 -0.0325
    1DIPC   GL224952   3.997  10.066   3.468 -0.2519 -0.1723 -0.0863
    1DIPC   C1A24953   3.873   9.722   3.822 -0.0041  0.1703 -0.1030
    1DIPC   D2A24954   3.809   9.541   4.147 -0.1056 -0.0216  0.1476
    1DIPC   D3A24955   3.287   9.559   4.249 -0.1635  0.0449  0.0571
    1DIPC   C4A24956   3.005   9.853   4.489 -0.0013  0.0209  0.0822
    1DIPC   C1B24957   4.093  10.207   3.879  0.2093  0.1806 -0.0827
    1DIPC   D2B24958   4.016  10.501   4.205 -0.2611 -0.0837 -0.1627
    1DIPC   D3B24959   3.617  10.515   4.286 -0.1845 -0.0455 -0.4878
    1DIPC   C4B24960   3.538  10.804   4.665  0.0562 -0.0301 -0.0958
    1DIPC   NC324961  15.208  23.815   1.649  0.1433  0.0070 -0.1671
    1DIPC   PO424962  15.302  24.223   1.653  0.1124  0.0827  0.0768
    1DIPC   GL124963  15.165  24.068   2.076  0.3362  0.2097 -0.4700
    1DIPC   GL224964  15.334  23.820   2.244 -0.1174  0.0076  0.0902
    1DIPC   C1A24965  15.116  24.211   2.502  0.1016 -0.3589 -0.1663
    1DIPC   D2A24966  15.258  24.256   2.880 -0.1685  0.2260 -0.2450
    1DIPC   D3A24967  15.558  24.450   2.587 -0.2038 -0.0421  0.0338
    1DIPC   C4A24968  15.960  24.295   2.509 -0.1304 -0.0350 -0.0228
    1DIPC   C1B24969  15.583  23.910   2.559 -0.0712  0.2545 -0.0176
    1DIPC   D2B24970  15.869  23.902   2.959  0.0256  0.2252  0.0137
    1DIPC   D3B24971  15.865  23.512   3.170 -0.0178  0.0557 -0.0985
    1DIPC   C4B24972  16.191  23.290   3.281  0.0830  0.3269 -0.0537
    1DIPC   NC324973  10.729  12.096   3.125  0.0265  0.2002  0.2434
    1DIPC   PO424974  10.608  12.536   3.028 -0.0488 -0.4160  0.0190
    1DIPC   GL124975  10.576  12.495   3.440 -0.0829  0.1613  0.1975
    1DIPC   GL224976  10.364  12.761   3.411  0.0657  0.3067  0.0967
    1DIPC   C1A24977  10.754  12.539   3.808 -0.4292 -0.2515  0.0508
    1DIPC   D2A24978  10.903  12.629   4.247  0.2361 -0.2378 -0.0816
    1DIPC   D3A24979  11.294  12.570   4.307 -0.2908 -0.0893 -0.0573
    1DIPC   C4A24980  11.392  12.781   4.637 -0.0083 -0.0033  0.1876
    1DIPC   C1B24981  10.231  12.698   3.796  0.1996 -0.0733 -0.1868
    1DIPC   D2B24982  10.362  12.673   4.178 -0.0730 -0.1928 -0.0842
    1DIPC   D3B24983  10.499  12.384   4.461 -0.1159  0.1863 -0.0925
    1DIPC   C4B24984  10.912  12.234   4.564 -0.2469 -0.0618 -0.1426
    1DIPC   NC324985  12.127  19.799   2.297  0.0538 -0.1772  0.0236
    1DIPC   PO424986  12.118  19.525   2.611 -0.1343 -0.1592 -0.2334
    1DIPC   GL124987  12.405  19.625   2.924  0.3218 -0.2151  0.2057
    1DIPC   GL224988  12.530  19.460   3.037 -0.2825 -0.0417 -0.2345
    1DIPC   C1A24989  12.429  19.941   3.154 -0.2585 -0.0473  0.1018
    1DIPC   D2A24990  12.577  20.249   3.340 -0.2015 -0.4815  0.0384
    1DIPC   D3A24991  12.656  20.014   3.645  0.0040  0.0398 -0.0455
    1DIPC   C4A24992  12.571  20.009   4.109  0.0692  0.0225  0.0308
    1DIPC   C1B24993  12.584  19.534   3.434 -0.1428  0.0752 -0.2157
    1DIPC   D2B24994  12.866  19.563   3.733  0.2432  0.1432 -0.2763
    1DIPC   D3B24995  12.889  19.146   3.999  0.1180  0.0082  0.1494
    1DIPC   C4B24996  13.276  18.857   3.971 -0.1137  0.1508  0.1771
    1DIPC   NC324997   7.120   5.169   3.113 -0.2804  0.0276  0.0602
    1DIPC   PO424998   6.873   4.840   3.042 -0.0832  0.1323  0.1584
    1DIPC   GL124999   7.188   4.690   3.327  0.2740 -0.4598 -0.1460
    1DIPC   GL225000   7.009   4.498   3.511  0.1171  0.2153  0.1396
    1DIPC   C1A25001   7.358   4.798   3.766 -0.2066  0.2124 -0.3089
    1DIPC   D2A25002   7.183   4.998   4.161  0.2403 -0.3416  0.0117
    1DIPC   D3A25003   7.510   5.165   4.461  0.3611 -0.2078 -0.1615
    1DIPC   C4A25004   7.252   5.258   4.798 -0.1560  0.0405 -0.0238
    1DIPC   C1B25005   6.949   4.502   3.995 -0.2740 -0.1353  0.1332
    1DIPC   D2B25006   6.985   4.283   4.378 -0.1574  0.0592 -0.0329
    1DIPC   D3B25007   7.164   4.632   4.525 -0.4570 -0.0753  0.1047
    1DIPC   C4B25008   7.657   4.659   4.658  0.1603 -0.0782 -0.0418
    1DIPC   NC325009   0.549   7.473   2.686  0.2577 -0.2830 -0.0817
    1DIPC   PO425010   0.329   7.851   2.921  0.0408  0.0134 -0.3540
    1DIPC   GL125011   0.652   8.124   3.054 -0.4135 -0.1332  0.2944
    1DIPC   GL225012   0.742   7.976   3.269  0.0685 -0.1294 -0.0628
    1DIPC   C1A25013   0.720   8.472   3.217  0.0302  0.0794 -0.1320
    1DIPC   D2A25014   0.660   8.517   3.659 -0.1269 -0.6605 -0.0353
    1DIPC   D3A25015   0.606   8.562   4.130  0.0957  0.0164 -0.1075
    1DIPC   C4A25016   0.582   8.987   4.401  0.0759  0.0097  0.0752
    1DIPC   C1B25017   0.871   7.971   3.676  0.1064 -0.2547  0.1210
    1DIPC   D2B25018   0.697   7.681   3.978 -0.0488  0.0129  0.1669
    1DIPC   D3B25019   0.517   7.386   4.342 -0.0825 -0.1106 -0.1689
    1DIPC   C4B25020   0.248   7.351   4.782 -0.1071  0.0487  0.0053
    1DIPC   NC325021  10.549  25.723   2.336 -0.0789 -0.1035 -0.0675
    1DIPC   PO425022  10.452  26.211   2.329  0.0158 -0.1654 -0.1184
    1DIPC   GL125023  10.341  26.026   2.650  0.1494 -0.2316 -0.0606
    1DIPC   GL225024  10.126  26.256   2.813 -0.0637  0.0791 -0.0461
    1DIPC   C1A25025  10.483  25.770   2.983  0.0938  0.0219 -0.0838
    1DIPC   D2A25026  10.301  25.676   3.439 -0.1896  0.1325 -0.3080
    1DIPC   D3A25027  10.189  25.243   3.545  0.1511 -0.1027  0.0052
    1DIPC   C4A25028   9.842  24.872   3.572  0.1394 -0.0755 -0.0777
    1DIPC   C1B25029   9.926  25.959   3.023 -0.1204  0.0905  0.0920
    1DIPC   D2B25030   9.493  25.939   3.170  0.3276  0.1379 -0.0247
    1DIPC   D3B25031   9.118  25.746   3.277  0.2051  0.0914  0.1302
    1DIPC   C4B25032   8.995  25.619   3.697 -0.0825  0.0455  0.1410
    1DIPC   NC325033  10.424   3.563   3.857 -0.0188  0.1832  0.0538
    1DIPC   PO425034  10.019   3.412   3.854 -0.0397 -0.1121 -0.0776
    1DIPC   GL125035   9.851   3.272   4.172 -0.0670 -0.0531  0.0127
    1DIPC   GL225036   9.972   2.916   4.225  0.0821 -0.2599 -0.0990
    1DIPC   C1A25037   9.703   3.346   4.636  0.2812  0.0516 -0.0837
    1DIPC   D2A25038   9.615   3.559   4.952 -0.2727  0.2314 -0.0280
    1DIPC   D3A25039   9.741   3.712   5.310  0.1672 -0.0101 -0.1110
    1DIPC   C4A25040   9.832   4.137   5.326  0.4169  0.2428  0.0049
    1DIPC   C1B25041  10.132   3.066   4.625  0.1711  0.1857  0.0098
    1DIPC   D2B25042   9.883   3.034   5.032  0.1095  0.0840  0.4506
    1DIPC   D3B25043  10.161   3.345   5.120  0.3591  0.4372 -0.0912
    1DIPC   C4B25044  10.554   3.296   4.787  0.3306  0.1361  0.0225
    1DIPC   NC325045  11.093   9.567   2.810 -0.1059  0.0875 -0.3149
    1DIPC   PO425046  10.966   9.376   3.213 -0.0381  0.2100 -0.0588
    1DIPC   GL125047  10.743   9.089   3.432 -0.2181 -0.1449 -0.0360
    1DIPC   GL225048  10.803   9.246   3.700  0.2904  0.3623 -0.0609
    1DIPC   C1A25049  10.621   8.822   3.674 -0.0352 -0.2207  0.0744
    1DIPC   D2A25050  10.489   8.517   3.975  0.0369 -0.0935  0.1217
    1DIPC   D3A25051  10.467   8.707   4.424 -0.1705 -0.2812 -0.1302
    1DIPC   C4A25052  10.356   9.072   4.554  0.2920  0.2671 -0.2651
    1DIPC   C1B25053  10.680   9.377   4.071 -0.1380  0.2725 -0.0970
    1DIPC   D2B25054  10.735   9.399   4.510  0.3867  0.0488 -0.4732
    1DIPC   D3B25055  10.687   9.337   4.817  0.3074  0.0798 -0.1516
    1DIPC   C4B25056  11.034   9.391   5.016  0.2297 -0.0237 -0.1492
    1DIPC   NC325057   0.112  29.312   2.230 -0.1215  0.2927 -0.0639
    1DIPC   PO425058   0.013  28.882   2.279 -0.0559  0.1216 -0.4503
    1DIPC   GL125059   0.041  28.706   2.775  0.1458 -0.1154 -0.1901
    1DIPC   GL225060  29.599  28.812   2.918 -0.0710  0.2719  0.0464
    1DIPC   C1A25061   0.105  28.534   3.153 -0.3302 -0.0998  0.4517
    1DIPC   D2A25062   0.326  28.401   3.533  0.2119 -0.0862  0.0634
    1DIPC   D3A25063   0.413  28.122   3.883  0.0650 -0.1727 -0.2794
    1DIPC   C4A25064   0.928  28.151   4.065  0.0908  0.0029 -0.0341
    1DIPC   C1B25065  29.499  28.516   3.305  0.0235  0.0022  0.0599
    1DIPC   D2B25066  29.356  28.389   3.757  0.2890 -0.1710 -0.1745
    1DIPC   D3B25067  29.524  28.363   4.111 -0.1501 -0.1153 -0.1319
    1DIPC   C4B25068  29.256  28.548   4.464  0.4238 -0.0329 -0.2336
    1DIPC   NC325069  10.203  26.678   2.509 -0.3980  0.5538 -0.0054
    1DIPC   PO425070  10.587  26.903   2.346 -0.2090  0.1901  0.0166
    1DIPC   GL125071  10.782  26.704   2.695  0.0704  0.0260 -0.1674
    1DIPC   GL225072  10.508  26.519   2.916  0.2550 -0.1269 -0.0466
    1DIPC   C1A25073  11.021  26.386   2.771 -0.0833 -0.0196  0.2080
    1DIPC   D2A25074  10.979  26.097   3.071 -0.2385 -0.2566  0.1970
    1DIPC   D3A25075  10.848  26.387   3.448 -0.3850  0.2383  0.1158
    1DIPC   C4A25076  10.532  26.384   3.800  0.0365 -0.0542  0.0942
    1DIPC   C1B25077  10.381  26.157   3.269 -0.0277 -0.0369  0.1482
    1DIPC   D2B25078  10.654  25.952   3.600  0.0286 -0.0428  0.0927
    1DIPC   D3B25079  10.421  25.924   4.029 -0.1444 -0.0966  0.2678
    1DIPC   C4B25080  10.780  25.696   4.291  0.2442 -0.1787 -0.0912
    1DIPC   NC325081   2.912  14.933   2.381  0.1062  0.1646  0.1353
    1DIPC   PO425082   2.561  15.019   2.675  0.0694  0.0362  0.0366
    1DIPC   GL125083   2.569  14.959   3.118 -0.2765  0.1347 -0.3702
    1DIPC   GL225084   2.858  14.982   3.293  0.1113 -0.1281  0.0519
    1DIPC   C1A25085   2.413  14.754   3.543  0.0265 -0.1147 -0.1826
    1DIPC   D2A25086   2.327  14.456   3.778 -0.1269  0.0184 -0.0145
    1DIPC   D3A25087   2.178  14.612   4.156 -0.1869 -0.1229  0.2213
    1DIPC   C4A25088   2.425  14.788   4.483  0.1599 -0.0725  0.0867
    1DIPC   C1B25089   2.967  14.620   3.409 -0.0055  0.1083  0.1426
    1DIPC   D2B25090   2.806  14.251   3.699 -0.1147  0.0712 -0.1974
    1DIPC   D3B25091   3.006  14.067   4.089  0.1951  0.2031  0.0673
    1DIPC   C4B25092   3.289  14.378   4.226 -0.1295  0.0577  0.2039
    1DIPC   NC325093  21.892  25.675   2.814  0.0487 -0.0038 -0.2810
    1DIPC   PO425094  22.078  26.083   2.912  0.0798  0.0680 -0.2727
    1DIPC   GL125095  21.923  25.784   3.304  0.1365 -0.3883  0.0272
    1DIPC   GL225096  21.692  26.065   3.308 -0.0722 -0.0905  0.0326
    1DIPC   C1A25097  21.970  25.936   3.671  0.1595 -0.1020  0.0092
    1DIPC   D2A25098  22.291  26.009   4.025  0.1368 -0.2975 -0.1577
    1DIPC   D3A25099  22.569  25.820   4.257 -0.1850  0.4044  0.0671
    1DIPC   C4A25100  22.479  25.991   4.572  0.2907  0.1805 -0.0601
    1DIPC   C1B25101  21.520  25.660   3.509 -0.0763 -0.2825  0.4339
    1DIPC   D2B25102  21.171  25.991   3.672 -0.2264  0.1703  0.2874
    1DIPC   D3B25103  21.367  26.375   3.547 -0.0001  0.0287  0.2805
    1DIPC   C4B25104  21.797  26.410   3.640 -0.2441  0.2017  0.1086
    1DIPC   NC325105  27.700  13.218   2.876 -0.0075 -0.1008 -0.1364
    1DIPC   PO425106  27.244  13.339   2.905 -0.4391  0.1611  0.0745
    1DIPC   GL125107  27.330  13.199   3.302 -0.0137 -0.1446  0.0226
    1DIPC   GL225108  27.559  13.077   3.322  0.1675  0.2780 -0.1241
    1DIPC   C1A25109  27.408  13.156   3.788 -0.1135  0.0348  0.2083
    1DIPC   D2A25110  27.689  13.170   4.056 -0.1470 -0.1152  0.0972
    1DIPC   D3A25111  27.750  13.132   4.421 -0.1235  0.1124  0.0247
    1DIPC   C4A25112  27.576  13.344   4.806 -0.2814 -0.2027  0.2391
    1DIPC   C1B25113  27.703  12.831   3.595  0.1624  0.1437 -0.4006
    1DIPC   D2B25114  27.781  12.481   3.842  0.1033  0.1432 -0.1517
    1DIPC   D3B25115  27.730  12.658   4.243 -0.1112  0.1230 -0.0498
    1DIPC   C4B25116  28.016  12.703   4.557  0.4149  0.0897  0.0487
    1DIPC   NC325117   6.845  10.198   2.689  0.3029  0.0605  0.0360
    1DIPC   PO425118   6.878  10.348   3.056 -0.0434  0.1379  0.0392
    1DIPC   GL125119   7.129  10.448   3.416 -0.1510  0.2754  0.0256
    1DIPC   GL225120   7.414  10.738   3.483 -0.0917  0.4102  0.0248
    1DIPC   C1A25121   7.152  10.363   3.880  0.2955  0.0238  0.0788
    1DIPC   D2A25122   7.275  10.024   4.248  0.0152  0.0893 -0.0617
    1DIPC   D3A25123   7.239  10.046   4.708 -0.0741  0.0345  0.3920
    1DIPC   C4A25124   7.332  10.365   5.086  0.1759 -0.3553  0.3060
    1DIPC   C1B25125   7.475  10.772   3.884  0.1471  0.3626 -0.0518
    1DIPC   D2B25126   7.674  10.856   4.269  0.1194  0.3089  0.0255
    1DIPC   D3B25127   7.338  10.494   4.350  0.0337 -0.2910  0.3648
    1DIPC   C4B25128   7.067  10.563   4.598 -0.0798 -0.2477  0.0299
    1DIPC   NC325129  27.047  26.679   2.698  0.0018  0.2554 -0.2079
    1DIPC   PO425130  26.646  26.610   2.803 -0.1603 -0.2778  0.0062
    1DIPC   GL125131  26.568  26.734   3.240  0.0412  0.1569  0.2228
    1DIPC   GL225132  26.272  26.790   3.282 -0.2349 -0.2444  0.1386
    1DIPC   C1A25133  26.631  26.792   3.674 -0.1803  0.2675 -0.0615
    1DIPC   D2A25134  26.545  26.933   4.169  0.0506  0.1437 -0.0191
    1DIPC   D3A25135  26.422  27.314   4.082 -0.0266 -0.0204  0.0645
    1DIPC   C4A25136  26.811  27.494   4.214 -0.0001 -0.1059  0.1490
    1DIPC   C1B25137  26.088  27.051   3.680 -0.1511 -0.1240 -0.1261
    1DIPC   D2B25138  26.080  27.507   3.796 -0.2483  0.2509 -0.0896
    1DIPC   D3B25139  26.051  27.641   4.258  0.1469 -0.0425 -0.0675
    1DIPC   C4B25140  26.382  27.571   4.564  0.3614  0.2421  0.2475
    1DIPC   NC325141  23.585   1.636   3.772  0.4173  0.1380 -0.0271
    1DIPC   PO425142  23.612   1.301   3.550  0.4237  0.2465  0.2261
    1DIPC   GL125143  23.626   1.182   4.008  0.1523  0.0013  0.1310
    1DIPC   GL225144  23.369   1.138   4.013  0.1405 -0.0509  0.1832
    1DIPC   C1A25145  23.875   1.046   4.323 -0.0528  0.0777  0.0789
    1DIPC   D2A25146  24.329   0.801   4.446 -0.0666 -0.0299  0.2593
    1DIPC   D3A25147  24.290   1.158   4.789  0.1360 -0.1319  0.2694
    1DIPC   C4A25148  24.497   1.437   4.854  0.1397 -0.0823 -0.0105
    1DIPC   C1B25149  23.378   0.946   4.429 -0.0703 -0.1970 -0.2701
    1DIPC   D2B25150  23.168   0.992   4.838  0.1031 -0.2822  0.2821
    1DIPC   D3B25151  22.884   0.745   4.573  0.1467 -0.0674  0.2232
    1DIPC   C4B25152  22.688   0.636   4.976 -0.0135 -0.1717 -0.1029
    1DIPC   NC325153  29.293   2.958   3.052  0.2555  0.1676  0.1082
    1DIPC   PO425154  29.351   3.307   3.157 -0.1478  0.0621  0.1786
    1DIPC   GL125155  29.293   3.250   3.626 -0.1492 -0.2308  0.2577
    1DIPC   GL225156  29.036   3.435   3.727 -0.1852  0.0248  0.0404
    1DIPC   C1A25157  29.544   3.309   3.964 -0.5767 -0.1883  0.3785
    1DIPC   D2A25158  29.656   2.998   4.255  0.1754 -0.0782 -0.0123
    1DIPC   D3A25159  29.312   2.839   4.069 -0.1348 -0.2380 -0.0957
    1DIPC   C4A25160  28.963   3.138   4.102  0.0223 -0.0083  0.1677
    1DIPC   C1B25161  29.063   3.599   4.268  0.3083 -0.3581  0.1506
    1DIPC   D2B25162  29.060   3.829   4.670 -0.0862 -0.1566 -0.1124
    1DIPC   D3B25163  28.965   4.236   4.802  0.1010 -0.2019  0.3166
    1DIPC   C4B25164  28.524   4.565   4.794 -0.2897 -0.1384  0.0070
    1DIPC   NC325165  29.841  19.957   2.774 -0.2728 -0.2163 -0.0765
    1DIPC   PO425166   0.274  20.337   2.565  0.1708  0.5230 -0.1088
    1DIPC   GL125167   0.246  20.277   3.006 -0.1457  0.0158 -0.0503
    1DIPC   GL225168   0.350  20.494   3.330 -0.0862 -0.0816 -0.0592
    1DIPC   C1A25169   0.094  20.042   3.413 -0.1240 -0.0080 -0.1152
    1DIPC   D2A25170  29.845  19.987   3.926 -0.1853 -0.3433  0.0602
    1DIPC   D3A25171  29.401  19.947   4.156 -0.1764  0.0858 -0.1548
    1DIPC   C4A25172  29.145  19.601   4.127  0.0835 -0.0760  0.0945
    1DIPC   C1B25173   0.474  20.322   3.745  0.1066  0.1858  0.0353
    1DIPC   D2B25174   0.493  20.019   4.207  0.3051  0.0606  0.0414
    1DIPC   D3B25175   0.719  19.675   4.173  0.0281 -0.2725  0.3155
    1DIPC   C4B25176   0.847  19.385   4.523  0.0927 -0.2286  0.2398
    1DIPC   NC325177   4.807   4.639   3.313 -0.1545  0.0008 -0.2178
    1DIPC   PO425178   4.737   4.983   3.038  0.2266  0.0053 -0.0060
    1DIPC   GL125179   4.844   5.220   3.375 -0.1855  0.0711  0.0717
    1DIPC   GL225180   4.948   5.122   3.682 -0.1125  0.0630  0.0541
    1DIPC   C1A25181   4.657   5.495   3.715 -0.0642  0.0578 -0.3653
    1DIPC   D2A25182   4.490   5.710   4.125 -0.2432 -0.0819 -0.1005
    1DIPC   D3A25183   4.662   6.247   4.286 -0.2831 -0.0017  0.1299
    1DIPC   C4A25184   4.271   6.473   4.475 -0.2214  0.1238 -0.0749
    1DIPC   C1B25185   4.734   5.205   4.078 -0.0719  0.1991 -0.0161
    1DIPC   D2B25186   4.714   5.324   4.532 -0.2513 -0.1551  0.0069
    1DIPC   D3B25187   4.461   5.124   4.509  0.1132  0.2464 -0.0100
    1DIPC   C4B25188   4.348   4.931   4.906  0.1530  0.0223  0.0728
    1DIPC   NC325189  13.306  11.365   2.104  0.1816  0.0586  0.0046
    1DIPC   PO425190  13.211  11.781   2.393  0.2443  0.5589 -0.2088
    1DIPC   GL125191  13.464  11.868   2.841 -0.0446 -0.0454 -0.0890
    1DIPC   GL225192  13.782  11.981   2.780  0.0397  0.0444  0.1606
    1DIPC   C1A25193  13.441  11.880   3.269  0.2888  0.0127  0.0612
    1DIPC   D2A25194  13.320  11.897   3.719 -0.3729  0.1217 -0.0394
    1DIPC   D3A25195  13.397  12.317   3.926  0.0545  0.0064  0.1641
    1DIPC   C4A25196  13.389  12.386   4.384 -0.1847 -0.0163  0.3507
    1DIPC   C1B25197  13.966  12.023   3.155  0.1457  0.1761  0.0783
    1DIPC   D2B25198  13.928  12.144   3.555  0.0738 -0.2185  0.1648
    1DIPC   D3B25199  14.216  12.005   3.795 -0.0251 -0.2029  0.1380
    1DIPC   C4B25200  14.374  12.002   4.166 -0.0040 -0.2461 -0.1395
    1DIPC   NC325201   6.963  18.245   1.979 -0.3180 -0.2359 -0.0567
    1DIPC   PO425202   7.467  18.344   2.243  0.1555  0.3825  0.2003
    1DIPC   GL125203   7.529  18.414   2.580 -0.2158  0.0280 -0.1636
    1DIPC   GL225204   7.304  18.226   2.787 -0.1351  0.1937  0.2349
    1DIPC   C1A25205   7.818  18.352   2.985 -0.1512  0.2540  0.0421
    1DIPC   D2A25206   7.981  18.514   3.367  0.2379  0.1887  0.0791
    1DIPC   D3A25207   7.607  18.717   3.607 -0.0833 -0.0109 -0.0630
    1DIPC   C4A25208   7.691  19.061   3.957 -0.0053 -0.0332  0.3297
    1DIPC   C1B25209   7.344  18.186   3.189 -0.1525  0.1330  0.2259
    1DIPC   D2B25210   7.186  18.404   3.503  0.0587  0.2273 -0.1673
    1DIPC   D3B25211   7.466  18.711   3.110 -0.1092  0.0448  0.2184
    1DIPC   C4B25212   7.935  18.862   3.067 -0.0752 -0.0761 -0.2736
    1DIPC   NC325213  25.919  16.189   2.666 -0.1125  0.0426 -0.1311
    1DIPC   PO425214  26.195  16.434   2.671  0.0286 -0.0584 -0.1828
    1DIPC   GL125215  26.008  16.551   3.079 -0.1156 -0.0016 -0.0888
    1DIPC   GL225216  26.233  16.347   3.347 -0.0758 -0.3538  0.1342
    1DIPC   C1A25217  25.791  16.490   3.476 -0.1381 -0.3054 -0.0131
    1DIPC   D2A25218  25.560  16.443   3.759 -0.2704  0.1318 -0.0403
    1DIPC   D3A25219  25.822  16.666   4.071 -0.1617  0.0733  0.3755
    1DIPC   C4A25220  25.732  16.953   4.290 -0.3090  0.0280  0.2249
    1DIPC   C1B25221  26.222  16.462   3.840  0.2954  0.1555  0.1019
    1DIPC   D2B25222  26.258  16.630   4.213  0.2171  0.0462  0.3332
    1DIPC   D3B25223  26.494  16.970   4.121  0.0062  0.0158 -0.1093
    1DIPC   C4B25224  26.168  17.292   4.274  0.1710  0.0077  0.3701
    1DIPC   NC325225  13.635  27.101   2.814 -0.0797  0.1001 -0.1186
    1DIPC   PO425226  13.967  27.478   2.964 -0.1269  0.2456  0.1160
    1DIPC   GL125227  13.613  27.513   3.185 -0.0676  0.2055 -0.1625
    1DIPC   GL225228  13.284  27.589   3.234  0.1518 -0.0553  0.2944
    1DIPC   C1A25229  13.475  27.212   3.490  0.4404 -0.2670  0.0035
    1DIPC   D2A25230  13.124  27.010   3.693 -0.1603  0.2531 -0.0747
    1DIPC   D3A25231  13.289  26.743   3.986 -0.1415 -0.2724  0.1610
    1DIPC   C4A25232  12.967  26.600   4.304 -0.1419 -0.0789  0.1486
    1DIPC   C1B25233  12.910  27.316   3.379  0.2389 -0.2883  0.0006
    1DIPC   D2B25234  12.661  27.230   3.774 -0.1239  0.1461  0.0434
    1DIPC   D3B25235  12.681  26.867   3.926 -0.1085 -0.1044 -0.0210
    1DIPC   C4B25236  12.925  26.572   3.741 -0.1188 -0.0573 -0.1558
    1DIPC   NC325237   9.915  17.642   2.767  0.0754 -0.3742  0.0156
    1DIPC   PO425238   9.676  17.461   2.458  0.0729  0.1660 -0.1461
    1DIPC   GL125239   9.781  17.167   2.854 -0.1322  0.1127 -0.0664
    1DIPC   GL225240   9.595  16.961   3.033 -0.2533  0.1836 -0.1751
    1DIPC   C1A25241  10.008  17.177   3.268 -0.1014  0.1951  0.0175
    1DIPC   D2A25242  10.051  17.292   3.758  0.1128 -0.0988  0.0706
    1DIPC   D3A25243  10.011  17.711   3.985 -0.0288 -0.2107 -0.1535
    1DIPC   C4A25244   9.827  18.175   3.853 -0.3847  0.2542  0.2007
    1DIPC   C1B25245   9.569  17.119   3.408  0.1358 -0.3345  0.0582
    1DIPC   D2B25246   9.650  17.049   3.924  0.1198  0.1526 -0.3657
    1DIPC   D3B25247   9.371  16.938   4.298 -0.2699  0.0991  0.0943
    1DIPC   C4B25248   9.127  17.243   4.537 -0.0974 -0.1046 -0.2955
    1DIPC   NC325249  14.294  17.182   1.967 -0.0469 -0.0369 -0.0090
    1DIPC   PO425250  13.957  16.874   2.141 -0.0974 -0.1083 -0.1282
    1DIPC   GL125251  14.199  17.172   2.471  0.0795  0.3087  0.3076
    1DIPC   GL225252  14.298  17.537   2.685  0.1706  0.2536 -0.0506
    1DIPC   C1A25253  14.139  17.123   2.852  0.4109 -0.4228 -0.0045
    1DIPC   D2A25254  14.309  17.321   3.180  0.0725  0.0121  0.0366
    1DIPC   D3A25255  14.271  17.610   3.524 -0.1886 -0.0880 -0.1070
    1DIPC   C4A25256  14.610  17.570   3.882  0.1510 -0.1588 -0.2178
    1DIPC   C1B25257  14.495  17.733   3.003  0.1369 -0.3101 -0.0529
    1DIPC   D2B25258  14.696  18.023   3.099  0.3519 -0.0091 -0.2425
    1DIPC   D3B25259  14.763  17.946   3.481 -0.0394  0.2306 -0.5870
    1DIPC   C4B25260  14.975  18.123   3.861  0.1349  0.4580  0.1988
    1DIPC   NC325261   5.305   8.089   2.985  0.2673  0.2922  0.0126
    1DIPC   PO425262   5.201   8.425   3.215 -0.0881  0.0422  0.2628
    1DIPC   GL125263   5.027   8.737   3.426 -0.4351  0.2587 -0.2405
    1DIPC   GL225264   5.233   9.005   3.436 -0.0760 -0.1423  0.0762
    1DIPC   C1A25265   4.645   8.680   3.534  0.0577 -0.2985 -0.1754
    1DIPC   D2A25266   4.206   8.812   3.612 -0.0819 -0.0089  0.0657
    1DIPC   D3A25267   4.292   8.771   4.091  0.0974 -0.1450 -0.5515
    1DIPC   C4A25268   4.602   9.034   4.357 -0.1921  0.0296 -0.2019
    1DIPC   C1B25269   4.882   9.155   3.611  0.1301  0.0094 -0.0974
    1DIPC   D2B25270   4.392   9.244   3.561  0.1372 -0.0637 -0.0346
    1DIPC   D3B25271   4.138   9.196   3.950  0.2865  0.1674  0.0556
    1DIPC   C4B25272   3.785   8.869   3.904  0.0196  0.1275  0.2609
    1DIPC   NC325273  20.485  29.344   3.319  0.1073  0.0372 -0.1401
    1DIPC   PO425274  20.887  29.222   3.172  0.0667 -0.0810  0.1850
    1DIPC   GL125275  20.790  29.075   3.628 -0.3229 -0.1653  0.0846
    1DIPC   GL225276  20.502  29.088   3.772  0.1689  0.1761 -0.2560
    1DIPC   C1A25277  20.969  29.009   3.949  0.0458 -0.1941 -0.2234
    1DIPC   D2A25278  21.184  29.375   4.054 -0.2867 -0.3128  0.1684
    1DIPC   D3A25279  21.333  29.086   4.352 -0.0586 -0.3155  0.3091
    1DIPC   C4A25280  21.622  29.202   4.617  0.2561  0.0405 -0.1173
    1DIPC   C1B25281  20.218  29.297   4.036 -0.0052  0.2860 -0.0288
    1DIPC   D2B25282  19.715  29.366   4.061 -0.1972  0.0431  0.3087
    1DIPC   D3B25283  19.387  29.231   4.327  0.0763  0.1032 -0.0865
    1DIPC   C4B25284  19.002  29.312   4.472  0.1325 -0.0140 -0.3094
    1DIPC   NC325285  13.709   9.008   2.871  0.2038  0.1078 -0.0348
    1DIPC   PO425286  13.707   9.366   3.035 -0.0966  0.1786  0.1945
    1DIPC   GL125287  13.718   9.379   3.536 -0.2681 -0.1345 -0.1496
    1DIPC   GL225288  13.468   9.274   3.685  0.0580 -0.1702 -0.2289
    1DIPC   C1A25289  13.949   9.164   3.803  0.0155  0.1376 -0.2363
    1DIPC   D2A25290  13.799   9.116   4.202 -0.1619 -0.1011  0.0048
    1DIPC   D3A25291  13.643   9.565   4.114 -0.1187  0.0177 -0.0094
    1DIPC   C4A25292  13.922   9.950   3.953  0.0086  0.5843  0.0345
    1DIPC   C1B25293  13.287   9.182   4.161 -0.1772 -0.2324  0.0929
    1DIPC   D2B25294  13.131   9.221   4.549 -0.0339  0.1782  0.0783
    1DIPC   D3B25295  13.446   8.881   4.556 -0.0583 -0.0394  0.0278
    1DIPC   C4B25296  13.866   8.770   4.758 -0.0177  0.0309  0.0755
    1DIPC   NC325297  16.076   0.304   3.132 -0.3517 -0.0148  0.2694
    1DIPC   PO425298  16.014   0.402   3.515  0.0736 -0.2607 -0.0779
    1DIPC   GL125299  15.882   0.033   3.839 -0.1758 -0.0764  0.1442
    1DIPC   GL225300  15.899   0.051   4.100 -0.3293  0.3038 -0.1385
    1DIPC   C1A25301  15.709  29.488   3.776 -0.0181 -0.0307 -0.3287
    1DIPC   D2A25302  15.378  29.226   3.993  0.2500 -0.2173 -0.0938
    1DIPC   D3A25303  15.081  29.332   3.784  0.1580  0.1133 -0.0845
    1DIPC   C4A25304  14.750  29.238   3.818  0.1196  0.1671 -0.2773
    1DIPC   C1B25305  16.114  29.640   4.522  0.0201  0.1160 -0.0623
    1DIPC   D2B25306  16.552  29.764   4.657  0.1654 -0.0642  0.1311
    1DIPC   D3B25307  16.706  29.288   4.716  0.2970  0.3029  0.1472
    1DIPC   C4B25308  17.153  29.241   4.730  0.2431  0.1289 -0.0662
    1DIPC   NC325309  29.255  14.246   2.508  0.0394 -0.0939  0.2477
    1DIPC   PO425310  29.622  13.961   2.756  0.2972 -0.2071 -0.0094
    1DIPC   GL125311  29.219  13.975   3.008 -0.2965  0.0872 -0.0154
    1DIPC   GL225312  29.236  14.350   3.088  0.0020  0.3369  0.0026
    1DIPC   C1A25313  28.955  13.969   3.373  0.0427  0.0723  0.2485
    1DIPC   D2A25314  28.789  13.940   3.725  0.0754  0.3109  0.0790
    1DIPC   D3A25315  28.631  14.413   3.907 -0.2414  0.1420  0.0517
    1DIPC   C4A25316  28.653  14.531   4.239  0.2713  0.2283  0.0150
    1DIPC   C1B25317  29.100  14.414   3.546 -0.2627  0.1213 -0.0163
    1DIPC   D2B25318  29.465  14.342   3.799  0.2385  0.2378  0.0947
    1DIPC   D3B25319  29.205  14.261   4.177  0.3462 -0.1124 -0.1390
    1DIPC   C4B25320  29.351  14.081   4.566  0.0015 -0.2706 -0.0086
    1DIPC   NC325321   7.123   0.056   3.102 -0.3669 -0.0096 -0.1483
    1DIPC   PO425322   7.053  29.666   2.776 -0.0715 -0.1737 -0.3698
    1DIPC   GL125323   6.749  29.554   3.089  0.0305  0.3213 -0.0183
    1DIPC   GL225324   6.820  29.684   3.385  0.1954 -0.0444  0.1892
    1DIPC   C1A25325   6.271  29.616   3.202  0.0458 -0.1138  0.1662
    1DIPC   D2A25326   5.954   0.062   3.146 -0.2883 -0.1589  0.2788
    1DIPC   D3A25327   5.852  29.644   3.480 -0.0946  0.0690  0.3455
    1DIPC   C4A25328   6.012  29.671   3.923  0.3143  0.0923  0.2605
    1DIPC   C1B25329   7.097  29.432   3.578 -0.2101  0.1731 -0.0335
    1DIPC   D2B25330   7.295  29.241   3.895  0.2254 -0.4203 -0.0826
    1DIPC   D3B25331   6.876  29.194   4.063 -0.2637  0.0701  0.2378
    1DIPC   C4B25332   6.757  28.865   4.312  0.0243  0.0841  0.0623
    1DIPC   NC325333   0.029  24.627   2.611 -0.1061 -0.0440 -0.0871
    1DIPC   PO425334  29.469  24.380   2.346 -0.2780 -0.3102  0.1990
    1DIPC   GL125335  29.523  24.324   2.776  0.1964  0.2581  0.2624
    1DIPC   GL225336  29.447  24.542   2.886  0.0936 -0.4805  0.1255
    1DIPC   C1A25337  29.569  24.177   3.225 -0.0645 -0.0503 -0.2754
    1DIPC   D2A25338  29.689  24.323   3.607  0.1809 -0.0350 -0.0119
    1DIPC   D3A25339   0.095  24.039   3.904  0.0633 -0.4089  0.0208
    1DIPC   C4A25340  29.673  23.929   4.261 -0.1545  0.2924  0.1091
    1DIPC   C1B25341  29.429  24.657   3.356  0.1028  0.0970  0.3148
    1DIPC   D2B25342  29.600  24.791   3.781  0.1127 -0.0411  0.0205
    1DIPC   D3B25343  29.643  24.476   4.075 -0.1044 -0.3047  0.0733
    1DIPC   C4B25344   0.188  24.377   4.269  0.0894  0.1828  0.3049
    1DIPC   NC325345   2.628  22.144   2.236  0.1601 -0.0106 -0.1746
    1DIPC   PO425346   2.431  22.353   2.643 -0.0138  0.3112  0.4902
    1DIPC   GL125347   2.563  22.616   2.962 -0.2388  0.3010 -0.0768
    1DIPC   GL225348   2.796  22.529   3.050  0.0493 -0.2212 -0.1638
    1DIPC   C1A25349   2.207  22.720   3.306 -0.0462  0.3961 -0.1676
    1DIPC   D2A25350   1.950  22.561   3.519  0.2489 -0.0883 -0.2685
    1DIPC   D3A25351   1.980  22.369   3.978 -0.1174  0.3468  0.1580
    1DIPC   C4A25352   1.732  22.386   4.370  0.0855 -0.2850  0.1596
    1DIPC   C1B25353   2.708  22.628   3.468  0.0884  0.0261 -0.1997
    1DIPC   D2B25354   2.425  22.728   3.852  0.0123  0.1519 -0.2340
    1DIPC   D3B25355   2.544  22.367   4.100 -0.1606 -0.0155  0.0192
    1DIPC   C4B25356   2.876  22.125   4.209  0.1834  0.1024 -0.3107
    1DIPC   NC325357  18.122  22.002   1.166  0.0549  0.0299  0.0544
    1DIPC   PO425358  18.245  21.983   1.483 -0.2124  0.0912  0.0421
    1DIPC   GL125359  18.082  22.059   1.876  0.1019 -0.1087 -0.1948
    1DIPC   GL225360  17.803  21.990   1.849  0.1561  0.0792 -0.1217
    1DIPC   C1A25361  18.109  22.194   2.338 -0.0558  0.0207  0.2375
    1DIPC   D2A25362  18.357  22.409   2.687  0.1394  0.2025 -0.1772
    1DIPC   D3A25363  18.385  21.922   2.930 -0.1710 -0.0911 -0.0501
    1DIPC   C4A25364  18.397  21.958   3.480 -0.0093  0.0157  0.1125
    1DIPC   C1B25365  17.491  22.306   1.970 -0.1707  0.3754 -0.0559
    1DIPC   D2B25366  17.339  22.595   2.281 -0.0853  0.0032  0.1391
    1DIPC   D3B25367  17.321  22.385   2.684 -0.2206  0.1476 -0.1695
    1DIPC   C4B25368  17.452  22.713   2.930  0.0696 -0.1918  0.2695
    1DIPC   NC325369  15.006  19.948   1.221 -0.1020 -0.1043  0.2584
    1DIPC   PO425370  14.846  20.237   1.424  0.1023  0.0914  0.0097
    1DIPC   GL125371  14.879  20.332   1.957 -0.1572  0.1309  0.1203
    1DIPC   GL225372  14.569  20.237   2.141 -0.0670  0.1212 -0.0233
    1DIPC   C1A25373  14.986  20.282   2.342 -0.0269 -0.0772  0.0298
    1DIPC   D2A25374  14.986  20.333   2.796 -0.0601  0.1280  0.0776
    1DIPC   D3A25375  14.679  20.467   3.216  0.1233  0.0872 -0.0483
    1DIPC   C4A25376  14.414  20.184   3.341  0.0866  0.0503  0.2743
    1DIPC   C1B25377  14.429  20.594   2.255 -0.2116  0.1084  0.0323
    1DIPC   D2B25378  14.242  20.803   2.605 -0.0077 -0.2639 -0.1021
    1DIPC   D3B25379  14.327  20.395   2.753 -0.2320  0.1247  0.1200
    1DIPC   C4B25380  14.038  20.366   3.110 -0.2181 -0.1950  0.0322
    1DIPC   NC325381  20.174   0.519   3.362  0.0501 -0.2278  0.0384
    1DIPC   PO425382  20.216   0.077   3.273 -0.0422 -0.0322 -0.0787
    1DIPC   GL125383  20.460   0.030   3.634 -0.3390  0.0431  0.1950
    1DIPC   GL225384  20.424   0.328   3.836  0.2308 -0.0911  0.3413
    1DIPC   C1A25385  20.634  29.589   3.926 -0.1667  0.3011  0.2539
    1DIPC   D2A25386  20.690  29.352   4.262 -0.1027  0.1049 -0.0747
    1DIPC   D3A25387  20.478  29.229   4.637  0.2347  0.0551 -0.4545
    1DIPC   C4A25388  20.511  29.513   4.927 -0.0747  0.0730 -0.2440
    1DIPC   C1B25389  20.916   0.213   3.835 -0.0015 -0.2361 -0.1163
    1DIPC   D2B25390  21.014   0.016   4.273  0.2884 -0.1692  0.0978
    1DIPC   D3B25391  20.865   0.124   4.708 -0.0317 -0.0943  0.2861
    1DIPC   C4B25392  21.037   0.567   4.676  0.1403 -0.2025 -0.1494
    1DIPC   NC325393   0.972   8.351   2.250  0.3087 -0.1307  0.0207
    1DIPC   PO425394   0.693   7.964   2.494 -0.2055  0.1890 -0.1405
    1DIPC   GL125395   0.942   7.721   2.884 -0.1129  0.1576 -0.0210
    1DIPC   GL225396   1.242   7.777   2.921 -0.0214 -0.0716 -0.1241
    1DIPC   C1A25397   0.853   7.476   3.336  0.0765  0.1084 -0.2163
    1DIPC   D2A25398   0.872   7.102   3.513  0.2993 -0.0245  0.3348
    1DIPC   D3A25399   0.830   7.144   3.946  0.0919 -0.1425 -0.2528
    1DIPC   C4A25400   0.708   6.895   4.261  0.1078  0.1071  0.1988
    1DIPC   C1B25401   1.286   7.762   3.377  0.0796 -0.2110 -0.2301
    1DIPC   D2B25402   1.115   7.561   3.746 -0.0982  0.0327 -0.2717
    1DIPC   D3B25403   1.263   7.437   4.111  0.0475  0.4189  0.0287
    1DIPC   C4B25404   1.040   7.265   4.423  0.1621  0.0176 -0.0999
    1DIPC   NC325405  17.195  20.398   1.396 -0.1237  0.0564 -0.1619
    1DIPC   PO425406  17.170  20.081   1.708  0.3434  0.2529 -0.3784
    1DIPC   GL125407  17.078  20.157   2.068 -0.0302  0.2148  0.2523
    1DIPC   GL225408  16.924  20.362   2.313  0.1391  0.0315  0.0085
    1DIPC   C1A25409  17.392  20.260   2.470 -0.1211 -0.0251  0.2668
    1DIPC   D2A25410  17.520  20.169   2.930  0.0894  0.1564 -0.0865
    1DIPC   D3A25411  17.169  20.283   2.886 -0.1356  0.2827 -0.3314
    1DIPC   C4A25412  16.969  20.356   3.277 -0.0223 -0.0806 -0.0296
    1DIPC   C1B25413  16.734  20.464   2.632 -0.2833  0.1068  0.1248
    1DIPC   D2B25414  16.513  20.405   3.077  0.0032  0.0279 -0.1927
    1DIPC   D3B25415  16.259  19.959   3.104 -0.1110  0.0894  0.4382
    1DIPC   C4B25416  16.008  19.835   3.480 -0.3250  0.0185  0.2671
    1DIPC   NC325417  26.252  21.329   2.897  0.1001 -0.4865  0.0703
    1DIPC   PO425418  26.379  20.993   2.696  0.2280 -0.1365 -0.3641
    1DIPC   GL125419  26.253  20.764   3.055  0.3415 -0.0288 -0.2067
    1DIPC   GL225420  25.984  20.753   3.363  0.1196  0.0817  0.0267
    1DIPC   C1A25421  26.481  20.495   3.359 -0.1652 -0.1356  0.2518
    1DIPC   D2A25422  26.952  20.220   3.416 -0.0850  0.0106 -0.1811
    1DIPC   D3A25423  26.742  20.059   3.837  0.1896 -0.1838 -0.1496
    1DIPC   C4A25424  26.954  19.774   4.064  0.0768  0.1878  0.0341
    1DIPC   C1B25425  26.275  20.853   3.603  0.1243  0.0870 -0.0196
    1DIPC   D2B25426  26.553  20.865   3.964  0.4648 -0.1871  0.1638
    1DIPC   D3B25427  26.055  20.729   4.050 -0.1126 -0.1363  0.0905
    1DIPC   C4B25428  25.827  20.500   3.761  0.0005  0.1802 -0.2004
    1DIPC   NC325429  19.783  27.296   3.036  0.2714  0.3031  0.2474
    1DIPC   PO425430  20.019  27.125   2.605  0.0799  0.0782 -0.1468
    1DIPC   GL125431  20.262  27.058   2.934  0.1505 -0.1223  0.1258
    1DIPC   GL225432  20.255  27.083   3.297  0.1973  0.1696 -0.1328
    1DIPC   C1A25433  20.507  26.792   3.016  0.1442  0.0436  0.0024
    1DIPC   D2A25434  20.743  26.442   3.229  0.0508  0.2418 -0.1990
    1DIPC   D3A25435  20.407  26.565   3.521 -0.0456  0.0960 -0.1247
    1DIPC   C4A25436  20.011  26.747   3.451  0.0698  0.0005 -0.2202
    1DIPC   C1B25437  20.005  27.200   3.693 -0.3155 -0.1341  0.0026
    1DIPC   D2B25438  20.111  26.920   4.008  0.3003  0.0183  0.1318
    1DIPC   D3B25439  19.699  26.682   3.902 -0.0171 -0.1837  0.1529
    1DIPC   C4B25440  19.511  26.326   3.693  0.1737 -0.0965  0.4345
    1DIPC   NC325441  26.777  17.093   2.832  0.1657  0.0359  0.0059
    1DIPC   PO425442  27.136  16.692   2.790 -0.2701  0.1491  0.0254
    1DIPC   GL125443  26.997  16.660   3.214 -0.2495 -0.2475 -0.0407
    1DIPC   GL225444  27.003  16.964   3.240 -0.1138  0.0495 -0.2898
    1DIPC   C1A25445  27.122  16.640   3.691  0.1928  0.0779  0.1418
    1DIPC   D2A25446  27.482  16.709   3.846 -0.2317 -0.0721  0.1671
    1DIPC   D3A25447  27.311  17.093   3.926  0.3037 -0.0487 -0.2451
    1DIPC   C4A25448  26.907  17.099   3.700 -0.0361 -0.0766  0.1722
    1DIPC   C1B25449  27.328  17.096   3.472 -0.1627  0.0440 -0.0444
    1DIPC   D2B25450  27.682  17.227   3.653 -0.1300  0.5139  0.1386
    1DIPC   D3B25451  28.052  17.333   3.880  0.1202 -0.0309 -0.0187
    1DIPC   C4B25452  28.332  17.662   4.097 -0.1505 -0.1603  0.2953
    1DIPC   NC325453   2.709  17.648   3.035  0.2336  0.0102  0.1532
    1DIPC   PO425454   2.804  17.092   3.008 -0.0099 -0.2190  0.0445
    1DIPC   GL125455   2.769  17.189   3.469 -0.3027 -0.0001  0.2672
    1DIPC   GL225456   2.710  17.449   3.538 -0.1124 -0.1723 -0.2117
    1DIPC   C1A25457   3.057  17.050   3.909  0.1127 -0.0954 -0.0907
    1DIPC   D2A25458   3.166  17.100   4.321 -0.1461 -0.3127 -0.1227
    1DIPC   D3A25459   3.397  16.718   4.275 -0.0982 -0.0743 -0.0221
    1DIPC   C4A25460   3.406  16.471   3.972  0.0486  0.2865  0.1342
    1DIPC   C1B25461   2.744  17.461   4.004 -0.3189  0.3066  0.0930
    1DIPC   D2B25462   2.652  17.289   4.384  0.2750  0.1861  0.1976
    1DIPC   D3B25463   2.905  17.408   4.643  0.0071  0.2392  0.3301
    1DIPC   C4B25464   3.376  17.659   4.638 -0.0992  0.1694 -0.1471
    1DIPC   NC325465  28.509   4.171   3.142  0.1902 -0.0632 -0.0005
    1DIPC   PO425466  28.908   4.058   3.053 -0.2096  0.0724 -0.0448
    1DIPC   GL125467  28.889   4.117   3.512  0.0621  0.0970 -0.2221
    1DIPC   GL225468  28.951   3.942   3.690 -0.2040  0.2311  0.1574
    1DIPC   C1A25469  28.821   4.430   3.814  0.3261  0.0881  0.1122
    1DIPC   D2A25470  28.687   4.464   4.293  0.1061  0.0272 -0.3223
    1DIPC   D3A25471  28.870   4.864   4.158 -0.2066 -0.2504  0.2207
    1DIPC   C4A25472  29.236   5.004   4.315  0.0462 -0.0416  0.1209
    1DIPC   C1B25473  28.693   3.822   3.976 -0.1004  0.2354  0.1362
    1DIPC   D2B25474  28.422   4.089   4.028 -0.3193  0.2632  0.0678
    1DIPC   D3B25475  28.221   3.709   3.885  0.0405 -0.0363  0.2313
    1DIPC   C4B25476  27.942   3.503   4.199 -0.0604  0.1998 -0.1243
    1DIPC   NC325477  12.294  18.765   2.041 -0.1352 -0.0206  0.1405
    1DIPC   PO425478  12.359  18.430   2.438 -0.0985  0.2820 -0.1543
    1DIPC   GL125479  12.430  18.361   2.936  0.1508 -0.1637 -0.0376
    1DIPC   GL225480  12.542  18.559   3.213 -0.1372  0.2996 -0.4101
    1DIPC   C1A25481  12.531  17.992   3.135  0.0622 -0.1011  0.0468
    1DIPC   D2A25482  12.456  17.857   3.597  0.1866 -0.1455 -0.0463
    1DIPC   D3A25483  11.999  17.961   3.493 -0.0640 -0.3754 -0.1631
    1DIPC   C4A25484  11.767  18.402   3.684  0.1393  0.1895  0.1674
    1DIPC   C1B25485  12.659  18.352   3.479  0.1335  0.0127  0.0642
    1DIPC   D2B25486  12.563  18.240   3.911 -0.2283 -0.1500  0.2011
    1DIPC   D3B25487  12.151  18.145   3.925 -0.2243 -0.3549  0.1420
    1DIPC   C4B25488  11.866  17.828   3.976  0.1802  0.1596  0.1353
    1DIPC   NC325489  21.877  22.597   2.177 -0.1275  0.2281  0.1644
    1DIPC   PO425490  21.725  22.307   2.494  0.2355  0.1891  0.3571
    1DIPC   GL125491  21.618  22.170   2.913 -0.2831 -0.1133 -0.0356
    1DIPC   GL225492  21.773  21.836   3.053 -0.0542 -0.0331  0.0259
    1DIPC   C1A25493  21.323  21.944   3.223  0.0067 -0.1313 -0.0010
    1DIPC   D2A25494  20.968  21.791   3.502 -0.0370 -0.1642 -0.0599
    1DIPC   D3A25495  20.778  22.192   3.655  0.0078  0.1802 -0.0446
    1DIPC   C4A25496  20.920  22.422   4.061 -0.1987  0.0335 -0.2150
    1DIPC   C1B25497  21.854  22.232   3.313 -0.0636  0.0823 -0.3558
    1DIPC   D2B25498  22.049  22.532   3.585  0.0950  0.0544  0.1399
    1DIPC   D3B25499  21.828  22.357   3.911 -0.0708 -0.0896 -0.0826
    1DIPC   C4B25500  21.835  21.933   4.115 -0.0641 -0.0699  0.2196
    1DIPC   NC325501  29.394  13.511   2.908 -0.4919  0.3934 -0.0063
    1DIPC   PO425502  29.532  13.077   2.951  0.0771 -0.0052 -0.1955
    1DIPC   GL125503  29.656  13.068   3.305 -0.2134  0.0968  0.1469
    1DIPC   GL225504  29.639  12.719   3.389  0.0692 -0.2799 -0.0978
    1DIPC   C1A25505  29.441  13.200   3.608  0.0437 -0.3435 -0.0143
    1DIPC   D2A25506  29.616  13.325   4.004 -0.1207 -0.0767 -0.1733
    1DIPC   D3A25507  29.490  13.229   4.336  0.1474 -0.3545 -0.0278
    1DIPC   C4A25508   0.013  13.223   4.646 -0.3299  0.0865 -0.0280
    1DIPC   C1B25509  29.773  12.858   3.796  0.0320  0.0351  0.0049
    1DIPC   D2B25510   0.061  12.841   4.224 -0.1674  0.0632 -0.2491
    1DIPC   D3B25511  29.740  12.605   4.542 -0.1728 -0.2346  0.1618
    1DIPC   C4B25512  29.468  12.890   4.714  0.1090  0.0887 -0.1447
    1DIPC   NC325513  25.409  23.441   3.228 -0.1009  0.2070  0.2047
    1DIPC   PO425514  25.837  23.461   3.188 -0.1897  0.0101 -0.1235
    1DIPC   GL125515  25.652  23.711   3.581  0.1319  0.3437  0.0949
    1DIPC   GL225516  25.250  23.831   3.703 -0.0461 -0.3980 -0.0184
    1DIPC   C1A25517  25.660  24.108   3.763  0.0127 -0.1387 -0.1118
    1DIPC   D2A25518  25.666  24.339   4.129  0.0888 -0.3949 -0.3612
    1DIPC   D3A25519  25.668  24.410   4.571  0.3296  0.0222 -0.1598
    1DIPC   C4A25520  25.959  24.778   4.621  0.0446  0.1394  0.0213
    1DIPC   C1B25521  25.409  23.567   3.965 -0.0571  0.5117 -0.0571
    1DIPC   D2B25522  25.391  23.143   4.163 -0.1463 -0.2020  0.1589
    1DIPC   D3B25523  25.000  23.151   4.202  0.0884 -0.1180  0.0818
    1DIPC   C4B25524  24.878  23.534   4.017 -0.0005 -0.2191 -0.1700
    1DIPC   NC325525  26.803   5.537   3.163 -0.0220 -0.2782  0.1432
    1DIPC   PO425526  27.014   5.053   3.055 -0.2865 -0.1839  0.0919
    1DIPC   GL125527  27.132   4.949   3.488 -0.1277  0.3124  0.1265
    1DIPC   GL225528  27.177   4.676   3.634  0.3790  0.0879  0.1072
    1DIPC   C1A25529  27.370   5.061   3.780 -0.0886  0.2791  0.2874
    1DIPC   D2A25530  27.628   5.275   4.033  0.0304 -0.1549  0.2229
    1DIPC   D3A25531  27.355   5.470   4.454  0.0312  0.3505  0.2163
    1DIPC   C4A25532  27.470   5.494   4.797 -0.0208  0.2287  0.3326
    1DIPC   C1B25533  27.616   4.631   3.928 -0.0254  0.2423 -0.0775
    1DIPC   D2B25534  27.896   4.868   4.161  0.3875 -0.1210  0.1222
    1DIPC   D3B25535  27.791   4.602   4.464  0.0220  0.0692 -0.0522
    1DIPC   C4B25536  27.417   4.736   4.671  0.0401 -0.2311  0.0353
    1DIPC   NC325537  13.913  21.729   1.313  0.3559  0.0677  0.0658
    1DIPC   PO425538  13.540  21.499   1.419 -0.0410 -0.0485  0.1247
    1DIPC   GL125539  13.675  21.647   1.765 -0.1394  0.1101 -0.2241
    1DIPC   GL225540  14.028  21.576   1.916 -0.2618 -0.1459 -0.1687
    1DIPC   C1A25541  13.680  22.025   2.023 -0.0581  0.1973  0.1140
    1DIPC   D2A25542  14.057  22.327   2.160 -0.0482  0.0189 -0.0405
    1DIPC   D3A25543  13.907  22.586   2.602  0.0017  0.1865  0.0445
    1DIPC   C4A25544  14.148  22.745   3.056 -0.0271  0.3970 -0.1595
    1DIPC   C1B25545  14.098  21.826   2.371 -0.1758 -0.0741 -0.0680
    1DIPC   D2B25546  14.382  21.778   2.734 -0.2940  0.2155  0.2731
    1DIPC   D3B25547  14.181  22.214   2.818 -0.0841  0.1392  0.2415
    1DIPC   C4B25548  13.871  22.297   3.150  0.1261  0.3069 -0.2266
    1DIPC   NC325549   6.194  23.377   2.158 -0.1481 -0.1899  0.0958
    1DIPC   PO425550   6.280  22.941   2.420 -0.0985 -0.4136 -0.1512
    1DIPC   GL125551   5.973  22.788   2.697 -0.0670 -0.1038  0.0033
    1DIPC   GL225552   6.218  22.893   2.939 -0.3322 -0.2259 -0.2489
    1DIPC   C1A25553   5.669  22.495   2.969 -0.0670  0.2593 -0.2188
    1DIPC   D2A25554   5.624  22.118   3.251  0.0657  0.3466  0.0129
    1DIPC   D3A25555   5.731  22.148   3.625 -0.0936 -0.1891 -0.0033
    1DIPC   C4A25556   6.064  21.983   3.601 -0.0556  0.0087 -0.0968
    1DIPC   C1B25557   5.749  23.007   3.056 -0.2312 -0.0810  0.2218
    1DIPC   D2B25558   5.704  23.303   3.345 -0.2825 -0.1610 -0.1436
    1DIPC   D3B25559   5.590  23.275   3.756 -0.2941  0.4093 -0.0486
    1DIPC   C4B25560   5.632  22.984   3.882  0.0934  0.1082  0.2356
    1DIPC   NC325561   8.968   2.658   3.517 -0.0941 -0.2453  0.0016
    1DIPC   PO425562   9.213   2.320   3.543 -0.3330  0.0834 -0.1347
    1DIPC   GL125563   9.157   2.461   4.005 -0.0308  0.1437  0.3139
    1DIPC   GL225564   9.001   2.818   4.065  0.2005  0.1685 -0.0035
    1DIPC   C1A25565   9.223   2.573   4.421  0.1613 -0.0849 -0.2437
    1DIPC   D2A25566   9.382   2.360   4.832 -0.1596  0.0032 -0.1202
    1DIPC   D3A25567   9.162   2.037   4.933  0.0024  0.1766  0.1268
    1DIPC   C4A25568   9.204   1.944   5.400  0.0086 -0.2488 -0.0198
    1DIPC   C1B25569   8.731   2.826   4.509 -0.0619  0.1782  0.0479
    1DIPC   D2B25570   8.308   2.755   4.751  0.4011  0.0240 -0.1167
    1DIPC   D3B25571   8.226   2.842   5.149 -0.4438  0.1177 -0.0343
    1DIPC   C4B25572   8.223   3.231   5.324  0.1138  0.3439  0.0673
    1DIPC   NC325573   5.786  22.438   2.294 -0.0421  0.1195  0.2694
    1DIPC   PO425574   5.774  21.989   2.224  0.0207  0.2173 -0.0892
    1DIPC   GL125575   5.796  22.142   2.654 -0.2758  0.0663 -0.0222
    1DIPC   GL225576   6.117  22.235   2.807  0.1761  0.1757 -0.0787
    1DIPC   C1A25577   5.596  21.834   2.882 -0.3148 -0.0879 -0.0064
    1DIPC   D2A25578   5.312  21.752   3.267 -0.0458 -0.1359  0.0067
    1DIPC   D3A25579   5.170  21.372   3.590 -0.3700  0.1384 -0.0100
    1DIPC   C4A25580   4.866  21.200   3.329  0.2191 -0.2824  0.2817
    1DIPC   C1B25581   6.171  22.499   3.126  0.0225  0.0493  0.1971
    1DIPC   D2B25582   6.494  22.787   3.427 -0.0459 -0.0040  0.2417
    1DIPC   D3B25583   6.761  22.684   3.043  0.2877  0.2191 -0.1499
    1DIPC   C4B25584   6.739  22.306   2.984  0.0756 -0.1439  0.0519
    1DIPC   NC325585  25.276  18.687   2.552  0.1082 -0.0366  0.1994
    1DIPC   PO425586  25.540  18.377   2.635  0.1357 -0.2519 -0.2043
    1DIPC   GL125587  25.352  18.560   3.029 -0.2155  0.4956 -0.1534
    1DIPC   GL225588  25.176  18.902   3.024  0.2535  0.0358  0.1082
    1DIPC   C1A25589  25.392  18.607   3.433  0.1511  0.1738  0.0834
    1DIPC   D2A25590  25.324  18.466   3.908 -0.3242  0.0492 -0.1687
    1DIPC   D3A25591  25.696  18.520   4.104  0.1724 -0.0198 -0.1179
    1DIPC   C4A25592  26.098  18.636   4.163 -0.1697 -0.1931 -0.1603
    1DIPC   C1B25593  25.004  19.034   3.402  0.1983  0.0495  0.0682
    1DIPC   D2B25594  25.096  18.888   3.763  0.2276 -0.0758 -0.1083
    1DIPC   D3B25595  25.182  19.221   3.996  0.1571 -0.0103 -0.1895
    1DIPC   C4B25596  25.380  19.349   4.390  0.0182 -0.3910 -0.0289
    1DIPC   NC325597  11.295  27.880   2.637 -0.0559 -0.2228  0.1631
    1DIPC   PO425598  11.759  27.728   2.713  0.0545 -0.1002 -0.1808
    1DIPC   GL125599  11.741  27.663   3.224 -0.2373  0.5387 -0.2816
    1DIPC   GL225600  11.805  27.450   3.333 -0.2275  0.0656  0.0308
    1DIPC   C1A25601  11.558  27.892   3.545  0.1548 -0.0157 -0.1927
    1DIPC   D2A25602  11.411  28.376   3.545  0.2436 -0.0781 -0.1011
    1DIPC   D3A25603  10.966  28.365   3.617  0.2306 -0.1397  0.0049
    1DIPC   C4A25604  10.763  28.265   4.071 -0.0443  0.2936 -0.2958
    1DIPC   C1B25605  11.822  27.490   3.801 -0.1770  0.1233  0.0157
    1DIPC   D2B25606  11.754  27.318   4.133  0.3304 -0.1722 -0.1042
    1DIPC   D3B25607  11.835  27.415   4.557  0.0595 -0.1702 -0.1556
    1DIPC   C4B25608  11.621  27.698   4.593  0.1611  0.1485 -0.1436
    1DIPC   NC325609   1.473   1.974   2.607  0.1255  0.1403 -0.1347
    1DIPC   PO425610   1.094   1.852   2.565 -0.3676 -0.0263  0.1533
    1DIPC   GL125611   1.188   1.612   2.908  0.1380 -0.1541  0.1378
    1DIPC   GL225612   1.296   1.938   3.113  0.2250  0.1597 -0.1914
    1DIPC   C1A25613   1.333   1.360   3.158 -0.0054 -0.2004 -0.0291
    1DIPC   D2A25614   1.622   1.238   3.452  0.1525  0.1957  0.1352
    1DIPC   D3A25615   1.801   0.880   3.395 -0.0180  0.1886  0.0974
    1DIPC   C4A25616   2.146   0.813   3.122 -0.2682 -0.1802  0.0545
    1DIPC   C1B25617   1.405   2.062   3.562  0.4940  0.0979 -0.0249
    1DIPC   D2B25618   1.659   2.313   3.730 -0.3711  0.0359 -0.0632
    1DIPC   D3B25619   1.493   2.062   4.055  0.1722 -0.0199  0.0681
    1DIPC   C4B25620   1.749   1.815   4.172 -0.0755 -0.3381 -0.2525
    1DIPC   NC325621   2.753  26.498   1.862  0.0260 -0.1419 -0.3832
    1DIPC   PO425622   3.153  26.546   1.641 -0.0496 -0.0053 -0.2529
    1DIPC   GL125623   3.202  26.511   2.175 -0.1342  0.0287  0.0119
    1DIPC   GL225624   2.881  26.496   2.345 -0.3092  0.0501  0.1047
    1DIPC   C1A25625   3.302  26.828   2.477 -0.0192 -0.3634 -0.0138
    1DIPC   D2A25626   3.377  26.797   2.932 -0.3019  0.1106  0.2852
    1DIPC   D3A25627   3.203  27.129   3.217  0.2422 -0.1648  0.0597
    1DIPC   C4A25628   3.591  27.092   3.468 -0.1637 -0.0995 -0.2419
    1DIPC   C1B25629   2.934  26.582   2.769 -0.0219 -0.1496 -0.1472
    1DIPC   D2B25630   2.702  26.857   3.030  0.2023 -0.0359 -0.1039
    1DIPC   D3B25631   2.971  26.702   3.362 -0.2780  0.0804  0.0719
    1DIPC   C4B25632   3.204  26.453   3.198  0.0306  0.1502 -0.1655
    1DIPC   NC325633   1.191   9.980   2.040 -0.0354 -0.2154 -0.0994
    1DIPC   PO425634   1.516   9.767   2.361 -0.1942  0.2664  0.3903
    1DIPC   GL125635   1.322   9.624   2.718  0.1120 -0.1482  0.1106
    1DIPC   GL225636   1.422   9.306   2.879  0.2046  0.1049 -0.1556
    1DIPC   C1A25637   1.024   9.646   3.061 -0.2959 -0.2557  0.0370
    1DIPC   D2A25638   0.954   9.946   3.482 -0.1289  0.2371  0.1684
    1DIPC   D3A25639   1.306  10.147   3.791 -0.0664 -0.1042  0.0463
    1DIPC   C4A25640   1.533  10.042   4.120 -0.0813  0.2091 -0.0846
    1DIPC   C1B25641   1.255   9.257   3.173 -0.0062 -0.1657 -0.3509
    1DIPC   D2B25642   1.340   9.310   3.610 -0.2667 -0.0160 -0.2342
    1DIPC   D3B25643   1.214   9.669   3.773 -0.0191 -0.0070 -0.2182
    1DIPC   C4B25644   1.138   9.818   4.246  0.1860 -0.0687 -0.2865
    1DIPC   NC325645  12.821  24.163   2.045  0.0318 -0.2195 -0.0213
    1DIPC   PO425646  13.166  24.039   1.791 -0.1794 -0.2116 -0.2932
    1DIPC   GL125647  13.356  24.172   2.101 -0.1269 -0.2473 -0.1362
    1DIPC   GL225648  13.158  24.435   2.222 -0.3822 -0.0446  0.0655
    1DIPC   C1A25649  13.452  24.160   2.514 -0.0272  0.0113 -0.0687
    1DIPC   D2A25650  13.504  24.401   2.887 -0.0444 -0.2033 -0.2185
    1DIPC   D3A25651  13.161  24.120   2.928 -0.2568 -0.2351 -0.1375
    1DIPC   C4A25652  12.745  24.306   3.078  0.2581 -0.1903  0.0585
    1DIPC   C1B25653  12.926  24.481   2.562 -0.0612 -0.4456  0.0543
    1DIPC   D2B25654  12.871  24.763   3.048  0.4318 -0.1036  0.1431
    1DIPC   D3B25655  12.578  25.066   3.290 -0.0732  0.2661 -0.3587
    1DIPC   C4B25656  12.151  25.136   3.397  0.3295 -0.2519 -0.0401
    1DIPC   NC325657  11.456  11.185   2.551 -0.2654 -0.0305  0.0356
    1DIPC   PO425658  11.776  11.476   2.577 -0.0306 -0.2901  0.0601
    1DIPC   GL125659  12.008  11.356   2.935  0.0087 -0.1558  0.1173
    1DIPC   GL225660  12.399  11.255   3.016 -0.0597  0.2377 -0.0365
    1DIPC   C1A25661  11.967  11.254   3.423  0.0701  0.2767  0.1227
    1DIPC   D2A25662  11.833  11.239   3.890  0.0735 -0.1218 -0.2243
    1DIPC   D3A25663  11.502  11.403   3.696 -0.1172  0.0843  0.0247
    1DIPC   C4A25664  11.729  11.762   3.401  0.3100  0.1592  0.2185
    1DIPC   C1B25665  12.214  10.831   3.197  0.0645 -0.1681  0.0323
    1DIPC   D2B25666  12.198  10.473   2.926 -0.3845  0.1568  0.1585
    1DIPC   D3B25667  11.764  10.705   2.942 -0.0053 -0.1201  0.1313
    1DIPC   C4B25668  11.499  10.450   3.207 -0.0393 -0.0939  0.1101
    1DIPC   NC325669   1.292   9.196   2.406 -0.2159  0.2703 -0.5164
    1DIPC   PO425670   1.339   8.838   2.197  0.0067  0.1885 -0.4705
    1DIPC   GL125671   1.228   8.651   2.586 -0.0245 -0.1255  0.2376
    1DIPC   GL225672   0.992   8.898   2.680 -0.3641  0.1651 -0.3302
    1DIPC   C1A25673   1.161   8.337   2.824  0.3379 -0.2017 -0.5054
    1DIPC   D2A25674   1.174   8.263   3.251 -0.1372 -0.1515 -0.1098
    1DIPC   D3A25675   1.339   8.281   3.636  0.6540 -0.0960  0.1317
    1DIPC   C4A25676   1.373   7.947   3.903 -0.1952 -0.2987  0.3453
    1DIPC   C1B25677   0.752   9.089   3.109  0.2041 -0.0633  0.1577
    1DIPC   D2B25678   0.447   8.916   3.407  0.3500 -0.1438 -0.0601
    1DIPC   D3B25679   0.532   9.328   3.517 -0.0958  0.2091  0.0409
    1DIPC   C4B25680   0.868   9.445   3.464 -0.1475  0.2151 -0.0456
    1DIPC   NC325681   4.732  21.251   2.156  0.2558  0.1515 -0.0264
    1DIPC   PO425682   4.787  20.970   2.589 -0.2153 -0.2679 -0.0212
    1DIPC   GL125683   4.522  20.732   2.830 -0.3898  0.0337  0.2186
    1DIPC   GL225684   4.471  20.407   2.665  0.2379 -0.0442 -0.1052
    1DIPC   C1A25685   4.371  20.990   3.097 -0.0849 -0.0129  0.1082
    1DIPC   D2A25686   4.425  21.400   3.074  0.1000  0.0734 -0.1758
    1DIPC   D3A25687   4.776  21.413   2.741 -0.1726  0.1157 -0.2355
    1DIPC   C4A25688   5.182  21.622   2.811 -0.1553  0.1622 -0.0333
    1DIPC   C1B25689   4.378  20.355   3.049  0.1841  0.1324  0.2437
    1DIPC   D2B25690   4.258  19.994   3.361  0.1579  0.0127  0.1527
    1DIPC   D3B25691   4.355  20.398   3.655  0.1355 -0.2809  0.1016
    1DIPC   C4B25692   4.187  20.354   4.129  0.1215 -0.0811  0.4120
    1DIPC   NC325693  26.497   1.086   2.888  0.1560 -0.1952 -0.1744
    1DIPC   PO425694  26.752   0.762   2.995  0.4331  0.1616  0.2980
    1DIPC   GL125695  26.736   0.440   3.304 -0.0584  0.0763 -0.0142
    1DIPC   GL225696  27.000   0.245   3.267  0.0600 -0.0447  0.0946
    1DIPC   C1A25697  26.794   0.329   3.734 -0.0530  0.3633  0.0596
    1DIPC   D2A25698  26.818   0.309   4.107  0.0030 -0.0914 -0.1167
    1DIPC   D3A25699  27.173   0.499   4.030  0.0317  0.0278  0.1051
    1DIPC   C4A25700  27.528   0.435   4.357 -0.3229  0.1634  0.3834
    1DIPC   C1B25701  27.173   0.678   3.586  0.1911 -0.3621 -0.1800
    1DIPC   D2B25702  27.356   0.933   3.889  0.2245 -0.2506  0.2605
    1DIPC   D3B25703  27.656   0.579   3.871  0.2711  0.1681  0.0862
    1DIPC   C4B25704  27.976   0.679   4.229  0.3052  0.2531 -0.0203
    1DIPC   NC325705   2.906   6.130   2.412 -0.3889  0.0170  0.3222
    1DIPC   PO425706   3.160   6.337   2.751 -0.5266  0.1997 -0.0228
    1DIPC   GL125707   3.389   6.279   3.114  0.0758 -0.2339  0.0790
    1DIPC   GL225708   3.295   6.340   3.432  0.0231 -0.0762 -0.2676
    1DIPC   C1A25709   3.773   6.392   3.355 -0.1706  0.0720  0.0348
    1DIPC   D2A25710   4.133   6.398   3.539  0.2309  0.0564 -0.1813
    1DIPC   D3A25711   4.109   6.836   3.475  0.0520 -0.0848  0.0646
    1DIPC   C4A25712   4.313   7.199   3.721 -0.1961  0.4066 -0.2780
    1DIPC   C1B25713   3.293   6.365   3.765 -0.1922  0.0239 -0.3654
    1DIPC   D2B25714   2.952   6.242   3.964  0.3332  0.0788 -0.1934
    1DIPC   D3B25715   2.908   6.179   4.489  0.0241  0.0065  0.2451
    1DIPC   C4B25716   3.026   6.064   4.937 -0.2109  0.0186  0.1028
    1DIPC   NC325717  23.646   0.788   3.703 -0.0168  0.0272 -0.2096
    1DIPC   PO425718  24.075   1.050   3.703  0.1762  0.3542 -0.0388
    1DIPC   GL125719  24.295   1.288   4.103 -0.0809  0.3482  0.2359
    1DIPC   GL225720  24.081   1.511   4.006 -0.0403  0.4019  0.1171
    1DIPC   C1A25721  24.661   1.230   4.410  0.1790 -0.1749  0.1924
    1DIPC   D2A25722  24.976   1.114   4.795 -0.0753 -0.2777  0.1577
    1DIPC   D3A25723  25.105   1.504   4.914 -0.1119  0.4577  0.3604
    1DIPC   C4A25724  25.039   1.424   5.319 -0.2389 -0.0353 -0.3989
    1DIPC   C1B25725  23.938   1.524   4.448 -0.0570 -0.2655  0.0686
    1DIPC   D2B25726  23.814   1.360   4.845 -0.0733  0.1957  0.4624
    1DIPC   D3B25727  23.637   0.960   4.846 -0.2508 -0.1351  0.0952
    1DIPC   C4B25728  23.685   0.634   5.193 -0.0304  0.0044 -0.2671
    1DIPC   NC325729  28.694  25.473   2.259 -0.0596  0.3766  0.1173
    1DIPC   PO425730  28.701  25.194   2.576 -0.3505  0.3208 -0.1215
    1DIPC   GL125731  29.135  25.140   2.914 -0.0073  0.0525 -0.2102
    1DIPC   GL225732  29.278  25.417   2.953  0.3915 -0.0874  0.1330
    1DIPC   C1A25733  29.278  25.113   3.373  0.2250 -0.0919  0.0591
    1DIPC   D2A25734  29.143  25.110   3.834  0.4389  0.0369 -0.2194
    1DIPC   D3A25735  28.943  25.506   3.956 -0.0934 -0.1792  0.0233
    1DIPC   C4A25736  28.807  25.800   4.237 -0.2368 -0.0299 -0.3064
    1DIPC   C1B25737  29.599  25.465   3.213  0.3680  0.3690 -0.1553
    1DIPC   D2B25738  29.688  25.768   3.481  0.0238 -0.2463 -0.0344
    1DIPC   D3B25739   0.132  25.581   3.678 -0.0386 -0.3721  0.0707
    1DIPC   C4B25740   0.446  25.827   3.843  0.0574  0.2204  0.1935
    1DIPC   NC325741  12.288  12.145   2.072  0.1613  0.4125 -0.0243
    1DIPC   PO425742  12.157  12.346   2.471 -0.0729  0.2199  0.0987
    1DIPC   GL125743  12.130  12.231   2.932  0.0094  0.0733  0.0740
    1DIPC   GL225744  12.380  12.158   3.233  0.0170  0.1644 -0.0840
    1DIPC   C1A25745  11.940  12.408   3.301 -0.3482 -0.2100 -0.0628
    1DIPC   D2A25746  11.784  12.141   3.630  0.0354  0.1582  0.1276
    1DIPC   D3A25747  12.140  12.420   3.754 -0.0196  0.0981  0.2972
    1DIPC   C4A25748  12.335  12.699   3.320  0.0721  0.0077 -0.0052
    1DIPC   C1B25749  12.610  12.276   3.552  0.0855  0.0205 -0.2560
    1DIPC   D2B25750  12.899  12.166   3.918  0.1170  0.1120  0.0316
    1DIPC   D3B25751  12.793  12.401   4.317 -0.1487  0.0198 -0.2214
    1DIPC   C4B25752  13.114  12.728   4.155  0.1961  0.0410  0.0032
    1DIPC   NC325753   9.143  28.584   3.146  0.1678 -0.1389  0.0958
    1DIPC   PO425754   9.264  28.152   2.899 -0.4067  0.0112  0.0038
    1DIPC   GL125755   9.352  28.141   3.353  0.0422  0.0088 -0.4691
    1DIPC   GL225756   9.563  27.978   3.526 -0.0112  0.1122 -0.2192
    1DIPC   C1A25757   9.112  28.184   3.658  0.1083  0.1316 -0.1358
    1DIPC   D2A25758   9.096  27.946   4.088  0.1456  0.1788  0.1368
    1DIPC   D3A25759   9.500  27.718   4.163  0.4182 -0.2029 -0.0256
    1DIPC   C4A25760   9.779  27.547   3.903 -0.0323 -0.0824 -0.1194
    1DIPC   C1B25761   9.282  27.697   3.708 -0.3980 -0.0298 -0.3668
    1DIPC   D2B25762   9.052  27.459   3.907  0.0464  0.5481  0.0795
    1DIPC   D3B25763   8.933  26.979   3.926  0.0137 -0.1988 -0.2113
    1DIPC   C4B25764   8.931  26.540   3.756 -0.0206  0.2469 -0.1997
    1DIPC   NC325765  18.946  28.133   2.702 -0.1707  0.0621  0.1991
    1DIPC   PO425766  18.812  28.398   2.913 -0.0776 -0.0508  0.1843
    1DIPC   GL125767  18.506  28.429   3.247 -0.0000  0.0139 -0.2178
    1DIPC   GL225768  18.688  28.191   3.587 -0.0097 -0.0245  0.1198
    1DIPC   C1A25769  18.233  28.445   3.624  0.1730  0.0307  0.0642
    1DIPC   D2A25770  18.151  28.314   4.015 -0.3354 -0.0803  0.1871
    1DIPC   D3A25771  18.566  28.303   4.100 -0.0519 -0.2537  0.0243
    1DIPC   C4A25772  18.814  28.214   4.439  0.0986 -0.3247 -0.0973
    1DIPC   C1B25773  18.383  27.880   3.580  0.2674 -0.0017  0.0189
    1DIPC   D2B25774  18.081  27.562   3.759  0.0671 -0.1141 -0.0851
    1DIPC   D3B25775  17.946  27.859   4.101  0.4158  0.1276  0.1394
    1DIPC   C4B25776  18.173  28.068   4.485 -0.3098 -0.1579 -0.0659
    1DIPC   NC325777  16.657  19.827   1.748  0.2145 -0.4104 -0.0544
    1DIPC   PO425778  16.915  19.645   2.006 -0.0802  0.2121 -0.0600
    1DIPC   GL125779  16.727  19.787   2.333 -0.0759 -0.0651  0.2825
    1DIPC   GL225780  16.574  19.473   2.402  0.1776  0.4131 -0.0931
    1DIPC   C1A25781  16.674  19.903   2.788 -0.0867 -0.2806 -0.0537
    1DIPC   D2A25782  16.726  19.701   3.173 -0.2099 -0.0465 -0.0302
    1DIPC   D3A25783  16.675  19.999   3.410 -0.0489  0.2195 -0.0452
    1DIPC   C4A25784  16.798  19.996   3.822  0.0260  0.2464  0.1420
    1DIPC   C1B25785  16.311  19.646   2.660  0.3347 -0.2250 -0.0419
    1DIPC   D2B25786  15.997  19.847   2.502  0.0385 -0.1742  0.3252
    1DIPC   D3B25787  16.298  20.151   2.525  0.0125 -0.2120  0.3839
    1DIPC   C4B25788  16.192  20.612   2.596  0.1451  0.1544 -0.0287
    1DIPC   NC325789   6.416   4.620   2.965 -0.2892  0.0781  0.0433
    1DIPC   PO425790   6.067   4.424   3.224 -0.2420  0.2479  0.1022
    1DIPC   GL125791   5.898   4.291   3.662  0.1226 -0.3972  0.0520
    1DIPC   GL225792   6.054   4.514   3.926 -0.1831  0.5580  0.4402
    1DIPC   C1A25793   5.640   4.268   4.001  0.0863  0.0564 -0.3209
    1DIPC   D2A25794   5.359   4.494   4.178  0.3191  0.2740 -0.2285
    1DIPC   D3A25795   5.052   4.223   4.340 -0.1732  0.1653 -0.0717
    1DIPC   C4A25796   5.122   3.862   4.413  0.0303  0.3787 -0.2009
    1DIPC   C1B25797   5.788   4.593   4.386 -0.0773  0.1264  0.0305
    1DIPC   D2B25798   5.702   4.957   4.609  0.0899  0.0277 -0.2068
    1DIPC   D3B25799   5.305   4.670   4.657 -0.0105  0.1372  0.0508
    1DIPC   C4B25800   5.166   4.631   5.127 -0.0819 -0.0967 -0.0059
    1DIPC   NC325801   8.823  12.938   2.364 -0.0967 -0.0926  0.1521
    1DIPC   PO425802   8.889  13.237   2.667  0.0797  0.1352  0.1520
    1DIPC   GL125803   8.761  13.468   3.017 -0.0922  0.2996  0.0242
    1DIPC   GL225804   8.576  13.350   3.285 -0.3755 -0.2236 -0.1944
    1DIPC   C1A25805   9.030  13.557   3.404  0.0221 -0.3510 -0.1913
    1DIPC   D2A25806   9.366  13.654   3.698 -0.2083  0.0955  0.1016
    1DIPC   D3A25807   9.245  13.847   4.052 -0.3425 -0.2509  0.3917
    1DIPC   C4A25808   9.411  14.277   4.222 -0.3793 -0.1991 -0.2581
    1DIPC   C1B25809   8.512  13.557   3.645 -0.0721  0.0309  0.2021
    1DIPC   D2B25810   8.570  13.943   4.038 -0.0273 -0.2996 -0.0238
    1DIPC   D3B25811   8.153  13.863   3.990 -0.0186 -0.3181  0.2204
    1DIPC   C4B25812   7.938  13.704   4.314 -0.0145 -0.1092 -0.1299
    1DIPC   NC325813   6.625  15.195   2.677  0.0157  0.0298 -0.0041
    1DIPC   PO425814   6.929  14.878   2.829 -0.0972 -0.0362 -0.1961
    1DIPC   GL125815   7.076  15.107   3.099  0.1248  0.1142 -0.3678
    1DIPC   GL225816   6.874  15.270   3.145  0.0306  0.0202  0.0199
    1DIPC   C1A25817   7.250  15.162   3.444 -0.2145 -0.0675  0.1289
    1DIPC   D2A25818   7.419  15.613   3.645  0.2343 -0.2446  0.2265
    1DIPC   D3A25819   7.676  15.896   3.773  0.1786 -0.3518  0.1800
    1DIPC   C4A25820   7.835  16.350   3.594 -0.1970  0.1933  0.1070
    1DIPC   C1B25821   6.515  15.267   3.507  0.0415 -0.1593  0.2188
    1DIPC   D2B25822   6.100  15.518   3.601 -0.2500  0.1826  0.0841
    1DIPC   D3B25823   6.332  15.480   3.916  0.1626 -0.1114  0.0259
    1DIPC   C4B25824   6.467  15.821   4.169 -0.2815 -0.0565 -0.0690
    1DIPC   NC325825  28.579   9.907   2.355 -0.1836 -0.0807  0.0896
    1DIPC   PO425826  28.104   9.856   2.598  0.1436 -0.0727  0.1314
    1DIPC   GL125827  28.321  10.166   2.857  0.1963 -0.0232  0.0397
    1DIPC   GL225828  28.103  10.535   2.900 -0.2070 -0.0532  0.0984
    1DIPC   C1A25829  28.510  10.057   3.314 -0.1458  0.0516  0.0351
    1DIPC   D2A25830  28.786   9.905   3.629 -0.2123  0.0558  0.0533
    1DIPC   D3A25831  29.101  10.181   3.671 -0.0047 -0.1750 -0.0902
    1DIPC   C4A25832  29.020  10.532   3.819  0.2680  0.0853  0.0293
    1DIPC   C1B25833  28.128  10.439   3.347 -0.1759  0.3066  0.0345
    1DIPC   D2B25834  28.033  10.093   3.526  0.0809 -0.1636  0.0237
    1DIPC   D3B25835  28.028  10.415   3.812  0.2003 -0.2378 -0.0150
    1DIPC   C4B25836  27.741  10.364   4.123 -0.1425 -0.3329  0.1302
    1DIPC   NC325837  25.607   6.481   2.497 -0.0416 -0.0856 -0.1475
    1DIPC   PO425838  25.500   6.747   2.902  0.2054  0.1862 -0.0624
    1DIPC   GL125839  25.653   7.030   3.247 -0.0383  0.2080  0.2334
    1DIPC   GL225840  25.834   7.353   3.140 -0.0557  0.5841  0.0449
    1DIPC   C1A25841  25.843   7.172   3.702 -0.0805 -0.0729  0.0542
    1DIPC   D2A25842  25.813   7.493   3.976  0.2086  0.1605 -0.0441
    1DIPC   D3A25843  25.409   7.359   3.732  0.1629  0.2239 -0.1070
    1DIPC   C4A25844  25.387   6.950   3.671  0.2416  0.1522 -0.0451
    1DIPC   C1B25845  25.861   7.636   3.493 -0.0080 -0.2476  0.0648
    1DIPC   D2B25846  25.924   8.010   3.739 -0.1839 -0.2192  0.2442
    1DIPC   D3B25847  26.042   7.861   4.118 -0.0136 -0.0945  0.2207
    1DIPC   C4B25848  25.747   7.774   4.464  0.1098 -0.2213 -0.0875
    1DIPC   NC325849   4.283   8.945   3.025 -0.0263 -0.1439  0.2733
    1DIPC   PO425850   3.957   9.264   2.862 -0.0960  0.1330 -0.1124
    1DIPC   GL125851   3.749   9.381   3.223  0.0299 -0.0776 -0.2556
    1DIPC   GL225852   3.894   9.173   3.374 -0.1335  0.2656  0.0576
    1DIPC   C1A25853   3.529   9.746   3.432  0.2044  0.0044  0.0609
    1DIPC   D2A25854   3.296   9.848   3.784  0.0705 -0.0675 -0.1180
    1DIPC   D3A25855   3.656  10.076   4.064 -0.0219 -0.0805  0.0422
    1DIPC   C4A25856   3.492  10.101   4.512  0.0403 -0.1073 -0.1812
    1DIPC   C1B25857   3.518   9.284   3.707 -0.1178 -0.0867 -0.1828
    1DIPC   D2B25858   3.028   9.414   3.703  0.0230  0.2459 -0.2731
    1DIPC   D3B25859   2.933   9.034   3.999 -0.0970 -0.3105 -0.3547
    1DIPC   C4B25860   2.885   8.821   4.517 -0.0187  0.1053 -0.1289
    1DIPC   NC325861  24.022   1.623   3.496 -0.1846  0.3615  0.0668
    1DIPC   PO425862  23.952   1.972   3.759  0.0813 -0.1185  0.1295
    1DIPC   GL125863  23.819   2.096   4.131 -0.0674 -0.1020 -0.0488
    1DIPC   GL225864  23.649   1.854   4.249  0.1118  0.2768  0.0190
    1DIPC   C1A25865  23.853   2.332   4.513  0.2505 -0.1595  0.0192
    1DIPC   D2A25866  24.115   2.452   4.842 -0.1898  0.1222 -0.1436
    1DIPC   D3A25867  24.122   2.655   5.225  0.0274  0.0975 -0.0240
    1DIPC   C4A25868  24.284   2.423   5.683 -0.2391  0.0985  0.0286
    1DIPC   C1B25869  23.676   1.864   4.659  0.3526 -0.0179 -0.0365
    1DIPC   D2B25870  23.724   2.184   5.068 -0.3441 -0.3408 -0.1713
    1DIPC   D3B25871  23.852   2.222   5.488  0.3415  0.1463  0.0537
    1DIPC   C4B25872  23.556   2.005   5.742  0.1079 -0.1222  0.0231
    1DIPC   NC325873   1.676  28.311   1.477  0.1446  0.4139  0.1607
    1DIPC   PO425874   1.702  28.106   1.898  0.0006 -0.1552  0.0218
    1DIPC   GL125875   1.928  28.396   2.256 -0.0209 -0.0869 -0.4546
    1DIPC   GL225876   1.730  28.336   2.497 -0.0046  0.2199 -0.2789
    1DIPC   C1A25877   2.176  28.515   2.615 -0.2242 -0.0175  0.2189
    1DIPC   D2A25878   2.185  28.395   3.052  0.3931  0.0833 -0.0130
    1DIPC   D3A25879   2.189  27.988   3.049 -0.2799 -0.0167  0.0036
    1DIPC   C4A25880   2.511  27.662   2.809 -0.0976 -0.0440  0.0934
    1DIPC   C1B25881   1.768  28.105   2.829 -0.3717  0.2238 -0.1518
    1DIPC   D2B25882   1.670  27.989   3.259 -0.6277  0.0791 -0.0270
    1DIPC   D3B25883   2.055  27.879   3.537  0.1428 -0.0535 -0.1367
    1DIPC   C4B25884   2.306  27.637   3.413 -0.0658  0.3439  0.4749
    1DIPC   NC325885   6.531  11.396   2.132  0.2103 -0.0789  0.5508
    1DIPC   PO425886   6.437  11.558   2.579 -0.1393  0.3796 -0.2011
    1DIPC   GL125887   6.179  11.633   3.045  0.0778  0.0854 -0.3150
    1DIPC   GL225888   6.220  11.301   3.122  0.4092  0.0412  0.0243
    1DIPC   C1A25889   5.956  11.818   3.353 -0.0846 -0.3015 -0.1528
    1DIPC   D2A25890   5.885  12.335   3.498 -0.0015  0.0424  0.1837
    1DIPC   D3A25891   6.277  12.262   3.305  0.0324 -0.1490  0.1245
    1DIPC   C4A25892   6.464  12.226   3.771  0.1626 -0.0184 -0.0569
    1DIPC   C1B25893   6.292  11.295   3.565 -0.1268 -0.1502  0.2934
    1DIPC   D2B25894   6.280  10.954   3.835 -0.0670  0.0142 -0.0196
    1DIPC   D3B25895   6.674  11.113   3.978  0.1252  0.2437  0.2605
    1DIPC   C4B25896   6.747  11.398   4.291  0.2400 -0.1472 -0.0330
    1DIPC   NC325897  11.946  25.095   2.305 -0.1554  0.0056  0.1478
    1DIPC   PO425898  11.815  24.753   2.087 -0.0574 -0.1760  0.1642
    1DIPC   GL125899  11.689  24.649   2.524 -0.0587 -0.1602 -0.2632
    1DIPC   GL225900  11.749  24.911   2.800 -0.1231  0.1395  0.0259
    1DIPC   C1A25901  11.751  24.398   2.877  0.1082  0.0959  0.2246
    1DIPC   D2A25902  11.552  24.363   3.289  0.3402 -0.1559 -0.0339
    1DIPC   D3A25903  11.255  24.800   3.308 -0.2537 -0.2266 -0.2111
    1DIPC   C4A25904  10.848  24.924   3.123 -0.3073 -0.0277  0.0020
    1DIPC   C1B25905  11.869  24.714   3.253  0.0574  0.0327  0.0231
    1DIPC   D2B25906  11.857  24.482   3.636  0.1138  0.0564  0.2297
    1DIPC   D3B25907  11.941  24.701   3.946  0.2257 -0.3213  0.2572
    1DIPC   C4B25908  12.263  24.692   4.239  0.0133  0.1093 -0.0664
    1DIPC   NC325909  25.591  29.212   2.785  0.0098  0.0367  0.1624
    1DIPC   PO425910  25.980  28.952   3.027  0.1527 -0.1105  0.0008
    1DIPC   GL125911  26.051  29.129   3.496 -0.0495  0.1344  0.0441
    1DIPC   GL225912  26.332  29.102   3.579 -0.0851 -0.0195 -0.0305
    1DIPC   C1A25913  26.086  29.107   3.996  0.0213  0.0568 -0.1775
    1DIPC   D2A25914  25.866  29.110   4.271 -0.1720  0.0936  0.0029
    1DIPC   D3A25915  25.669  28.965   4.628 -0.2055  0.0348 -0.0261
    1DIPC   C4A25916  25.800  29.160   5.050  0.1363 -0.1206 -0.0735
    1DIPC   C1B25917  26.564  29.324   3.868 -0.0660  0.1543  0.3922
    1DIPC   D2B25918  26.963  29.207   4.110 -0.0767 -0.1204 -0.1781
    1DIPC   D3B25919  26.712  28.975   4.401  0.2974  0.1911 -0.1220
    1DIPC   C4B25920  26.386  28.823   4.262  0.0514 -0.2853 -0.2506
    1DIPC   NC325921   5.018  28.936   2.382  0.1939  0.0289 -0.2368
    1DIPC   PO425922   4.733  28.729   2.099 -0.0051 -0.4034 -0.2475
    1DIPC   GL125923   4.519  28.628   2.545 -0.0670  0.1349  0.1643
    1DIPC   GL225924   4.549  28.793   2.768 -0.3228 -0.3050  0.0464
    1DIPC   C1A25925   4.272  28.327   2.845 -0.1455  0.0552 -0.0880
    1DIPC   D2A25926   4.164  28.238   3.276  0.1870 -0.2761  0.0913
    1DIPC   D3A25927   4.185  27.987   3.670 -0.2500  0.4947  0.2750
    1DIPC   C4A25928   4.161  27.890   4.070 -0.1167  0.0878  0.0891
    1DIPC   C1B25929   4.350  28.783   3.145  0.1833 -0.0529 -0.1179
    1DIPC   D2B25930   4.220  28.765   3.467 -0.0418 -0.3295 -0.1549
    1DIPC   D3B25931   3.983  28.991   3.785  0.2760  0.0615 -0.1241
    1DIPC   C4B25932   4.107  29.450   3.811  0.0076 -0.1271  0.0133
    1DIPC   NC325933  25.777  20.816   2.802  0.2825  0.2636  0.0627
    1DIPC   PO425934  25.742  21.211   2.997 -0.2192 -0.4374 -0.0825
    1DIPC   GL125935  25.644  21.303   3.379  0.0118  0.0253 -0.0310
    1DIPC   GL225936  25.805  21.455   3.460  0.0657  0.0411 -0.1357
    1DIPC   C1A25937  25.355  21.522   3.554  0.0248  0.1575 -0.2553
    1DIPC   D2A25938  25.033  21.526   3.880  0.0035 -0.0013  0.0217
    1DIPC   D3A25939  25.386  21.099   3.899  0.0432 -0.1392  0.0073
    1DIPC   C4A25940  25.512  20.863   3.592  0.2202  0.0126  0.0334
    1DIPC   C1B25941  25.874  21.101   3.755 -0.2334  0.1125  0.3481
    1DIPC   D2B25942  25.693  21.055   4.287  0.0508 -0.2773  0.2512
    1DIPC   D3B25943  25.423  21.382   4.415 -0.0048 -0.0841 -0.1488
    1DIPC   C4B25944  25.392  21.554   4.818 -0.1749  0.0359  0.0990
    1DIPC   NC325945  28.044  20.714   3.049  0.3596 -0.2109 -0.1658
    1DIPC   PO425946  27.722  20.455   2.983 -0.0360 -0.0017 -0.2861
    1DIPC   GL125947  27.878  20.368   3.329  0.0524  0.0596 -0.2506
    1DIPC   GL225948  27.607  20.326   3.590  0.1985  0.1697 -0.3270
    1DIPC   C1A25949  28.061  20.359   3.736 -0.0584 -0.3004  0.7812
    1DIPC   D2A25950  28.207  20.332   4.127 -0.2262 -0.1385 -0.2510
    1DIPC   D3A25951  28.650  20.435   4.085 -0.0013  0.0028 -0.1058
    1DIPC   C4A25952  28.972  20.197   3.982  0.1320 -0.1020  0.3863
    1DIPC   C1B25953  27.704  20.460   4.021 -0.0972 -0.2991  0.2466
    1DIPC   D2B25954  27.794  20.356   4.396 -0.0327  0.1022 -0.2022
    1DIPC   D3B25955  28.081  20.087   4.562  0.1556 -0.0611  0.1362
    1DIPC   C4B25956  27.980  20.050   4.982 -0.1528 -0.1649  0.1594
    1DIPC   NC325957  12.571   3.192   3.450 -0.2559  0.2656 -0.1789
    1DIPC   PO425958  12.667   3.234   3.973 -0.3792  0.1831 -0.0468
    1DIPC   GL125959  12.825   3.505   4.253 -0.0257 -0.0995 -0.2152
    1DIPC   GL225960  13.057   3.749   4.101 -0.1272  0.4117 -0.0975
    1DIPC   C1A25961  13.068   3.540   4.579  0.0273  0.0484 -0.1778
    1DIPC   D2A25962  13.019   3.864   4.871 -0.2033  0.0026  0.1046
    1DIPC   D3A25963  13.125   3.685   5.168  0.0177  0.2526 -0.3556
    1DIPC   C4A25964  12.834   3.539   5.529  0.1148  0.1408  0.0895
    1DIPC   C1B25965  13.242   4.006   4.340  0.0721 -0.0465 -0.1842
    1DIPC   D2B25966  13.542   4.389   4.497  0.1347 -0.2206  0.2660
    1DIPC   D3B25967  13.051   4.449   4.609  0.3049  0.2604 -0.1134
    1DIPC   C4B25968  13.037   4.568   4.974  0.2555 -0.1032  0.1851
    1DIPC   NC325969   4.167  12.676   2.051  0.1976  0.2248  0.2844
    1DIPC   PO425970   3.942  12.556   2.460 -0.1834  0.1805  0.1255
    1DIPC   GL125971   3.975  12.580   2.921 -0.2307  0.0740  0.2713
    1DIPC   GL225972   4.165  12.400   3.152  0.2367  0.1905  0.0155
    1DIPC   C1A25973   3.670  12.373   3.242 -0.4774  0.1909  0.0426
    1DIPC   D2A25974   3.340  12.358   3.419  0.1582  0.1777 -0.3837
    1DIPC   D3A25975   3.220  12.116   3.720 -0.0943  0.0765 -0.0725
    1DIPC   C4A25976   2.920  11.806   3.687  0.1245 -0.1088 -0.1603
    1DIPC   C1B25977   4.094  12.484   3.534  0.3637  0.0888  0.1657
    1DIPC   D2B25978   3.855  12.706   3.808 -0.0567 -0.2996  0.0452
    1DIPC   D3B25979   3.482  12.541   3.913 -0.1664  0.1895  0.0413
    1DIPC   C4B25980   3.167  12.775   4.070  0.0514 -0.2818 -0.1634
    1DIPC   NC325981   0.493   5.274   2.488 -0.2024  0.0690  0.0532
    1DIPC   PO425982   0.342   4.852   2.499  0.0553 -0.0392 -0.3137
    1DIPC   GL125983   0.388   4.923   2.926 -0.0443  0.2834 -0.2042
    1DIPC   GL225984   0.131   5.007   3.109  0.1368  0.0268  0.1240
    1DIPC   C1A25985   0.519   4.782   3.316  0.3388 -0.1144 -0.1353
    1DIPC   D2A25986   0.585   4.852   3.780  0.1220 -0.0643  0.1536
    1DIPC   D3A25987   0.699   4.954   4.166 -0.1646  0.0969 -0.2672
    1DIPC   C4A25988   0.873   4.874   4.591 -0.2584 -0.1424  0.2021
    1DIPC   C1B25989   0.228   5.134   3.513 -0.2780  0.4473 -0.0061
    1DIPC   D2B25990   0.152   5.062   3.925  0.0072 -0.2077 -0.1524
    1DIPC   D3B25991   0.117   5.053   4.304  0.2088 -0.0075  0.1866
    1DIPC   C4B25992  29.684   4.949   4.619 -0.3266  0.1714 -0.1614
    1DIPC   NC325993  20.760  20.572   1.584  0.1747  0.1326 -0.0369
    1DIPC   PO425994  20.960  20.577   2.008  0.0020 -0.4980  0.2397
    1DIPC   GL125995  20.907  20.914   2.402  0.0731  0.0955  0.2191
    1DIPC   GL225996  21.122  20.811   2.684 -0.0784 -0.0662  0.0782
    1DIPC   C1A25997  20.598  20.821   2.721  0.2050  0.2749  0.1478
    1DIPC   D2A25998  20.585  21.002   3.132 -0.0053 -0.2372 -0.0631
    1DIPC   D3A25999  20.522  20.855   3.546 -0.2222 -0.0740 -0.4096
    1DIPC   C4A26000  20.469  20.457   3.444 -0.2211 -0.1755  0.1351
    1DIPC   C1B26001  21.108  20.841   3.190  0.0436  0.0982  0.1441
    1DIPC   D2B26002  21.082  20.819   3.607  0.0720  0.3385  0.1723
    1DIPC   D3B26003  20.836  20.525   3.759  0.0467 -0.3401 -0.1975
    1DIPC   C4B26004  20.571  20.560   4.195  0.0952 -0.2919 -0.0431
    1DIPC   NC326005   1.583   3.575   3.331  0.0136  0.1041 -0.0905
    1DIPC   PO426006   1.096   3.590   3.299 -0.0160 -0.3258 -0.0543
    1DIPC   GL126007   0.774   3.662   3.620  0.3308  0.0681  0.2264
    1DIPC   GL226008   0.866   3.361   3.817 -0.2029  0.0096 -0.3873
    1DIPC   C1A26009   0.530   3.796   4.081 -0.1759 -0.0271  0.0038
    1DIPC   D2A26010   0.392   3.735   4.505 -0.1458 -0.1124  0.2027
    1DIPC   D3A26011   0.117   3.375   4.394 -0.1354  0.2114 -0.0503
    1DIPC   C4A26012  29.792   3.028   4.779  0.1553 -0.0087 -0.2077
    1DIPC   C1B26013   1.057   3.530   4.234  0.0496 -0.0492  0.4091
    1DIPC   D2B26014   0.944   3.583   4.725 -0.2632 -0.0434  0.1015
    1DIPC   D3B26015   1.243   3.945   4.680 -0.2627  0.4834 -0.0370
    1DIPC   C4B26016   1.473   3.744   4.360 -0.2217 -0.1416  0.2368
    1DIPC   NC326017  10.835  20.312   2.014 -0.0272 -0.2066  0.0643
    1DIPC   PO426018  10.664  20.485   2.341  0.3333 -0.2465 -0.0592
    1DIPC   GL126019  10.719  20.548   2.769  0.5781 -0.2081 -0.1622
    1DIPC   GL226020  10.558  20.318   2.894 -0.1336  0.0515 -0.1685
    1DIPC   C1A26021  10.695  20.678   3.178  0.1831 -0.0266 -0.1649
    1DIPC   D2A26022  10.771  20.459   3.613 -0.1600 -0.3220  0.3298
    1DIPC   D3A26023  10.664  20.199   3.975 -0.0799  0.0600  0.3263
    1DIPC   C4A26024  10.854  19.713   4.104 -0.2149 -0.2249 -0.1120
    1DIPC   C1B26025  10.280  20.341   3.146 -0.0186  0.1279  0.2712
    1DIPC   D2B26026  10.274  20.475   3.526 -0.0128  0.2489 -0.0154
    1DIPC   D3B26027  10.353  20.637   3.971  0.0582  0.3293  0.1123
    1DIPC   C4B26028  10.276  20.410   4.308  0.2854  0.0347  0.3535
    1DIPC   NC326029  10.523  13.060   3.029  0.0674 -0.2612  0.2076
    1DIPC   PO426030  10.842  13.295   2.782 -0.1566 -0.1433 -0.0363
    1DIPC   GL126031  10.870  13.365   3.185  0.0130  0.0624 -0.2629
    1DIPC   GL226032  11.018  13.528   3.239 -0.3859 -0.1532  0.0860
    1DIPC   C1A26033  10.635  13.353   3.639  0.4759  0.0024 -0.1482
    1DIPC   D2A26034  10.619  13.033   4.005 -0.1815  0.1565  0.0368
    1DIPC   D3A26035  11.060  13.146   4.194  0.1055 -0.1606  0.2165
    1DIPC   C4A26036  11.343  13.342   4.392 -0.4104  0.4095  0.1553
    1DIPC   C1B26037  10.821  13.859   3.355  0.3377 -0.1613  0.0064
    1DIPC   D2B26038  10.671  14.126   3.661  0.3951  0.0049  0.0609
    1DIPC   D3B26039  10.580  13.991   4.032 -0.0184  0.0200  0.0424
    1DIPC   C4B26040  10.608  13.533   4.132 -0.0068 -0.1085  0.3987
    1DIPC   NC326041  10.900   8.382   2.871  0.0055 -0.0965  0.1139
    1DIPC   PO426042  11.157   8.303   3.172 -0.2430  0.1722 -0.0839
    1DIPC   GL126043  11.275   8.483   3.552  0.0171  0.0046 -0.2129
    1DIPC   GL226044  11.485   8.523   3.800  0.1591  0.0603  0.0416
    1DIPC   C1A26045  11.059   8.653   3.911  0.2131 -0.1048 -0.3348
    1DIPC   D2A26046  10.801   8.873   4.153  0.1180  0.0777  0.1894
    1DIPC   D3A26047  10.902   8.918   4.583 -0.1617 -0.0841  0.1503
    1DIPC   C4A26048  11.117   8.565   4.897 -0.2332  0.1857  0.2051
    1DIPC   C1B26049  11.539   8.304   4.187 -0.1837  0.1233 -0.2003
    1DIPC   D2B26050  11.434   8.155   4.583 -0.0602 -0.2273  0.0083
    1DIPC   D3B26051  11.153   8.395   4.431  0.3513  0.0106  0.2213
    1DIPC   C4B26052  11.394   8.775   4.408  0.1088 -0.1197 -0.4048
    1DIPC   NC326053   0.261  19.414   2.710  0.0905  0.2014 -0.0752
    1DIPC   PO426054   0.661  19.325   2.707  0.0976 -0.1374 -0.1920
    1DIPC   GL126055   0.677  19.144   3.044  0.2530 -0.0364  0.2921
    1DIPC   GL226056   0.835  18.906   3.174  0.0302 -0.4205  0.1799
    1DIPC   C1A26057   0.374  19.207   3.335  0.1594 -0.1101 -0.0454
    1DIPC   D2A26058   0.077  19.415   3.565  0.0075  0.1259  0.0769
    1DIPC   D3A26059   0.343  19.743   3.791 -0.1541 -0.1922 -0.1856
    1DIPC   C4A26060   0.741  19.800   3.706 -0.0600 -0.3460 -0.0274
    1DIPC   C1B26061   0.895  18.830   3.575  0.0164  0.2901 -0.3294
    1DIPC   D2B26062   0.858  18.608   3.898 -0.0696 -0.2078 -0.1692
    1DIPC   D3B26063   1.212  18.752   4.136  0.0898  0.0514  0.0204
    1DIPC   C4B26064   1.280  19.131   4.342 -0.0048  0.3205 -0.1677
    1DIPC   NC326065   4.311  17.836   2.431  0.1885  0.0084  0.1081
    1DIPC   PO426066   4.528  17.642   2.852 -0.2098 -0.2473 -0.0874
    1DIPC   GL126067   4.531  17.601   3.320  0.0291 -0.2549 -0.1119
    1DIPC   GL226068   4.765  17.590   3.606 -0.0079 -0.0608  0.0697
    1DIPC   C1A26069   4.239  17.359   3.520  0.3952  0.1805  0.1195
    1DIPC   D2A26070   3.923  17.400   3.828 -0.0441  0.0176 -0.2308
    1DIPC   D3A26071   4.029  17.278   4.214  0.2820  0.0117  0.1748
    1DIPC   C4A26072   4.416  16.929   4.273 -0.1363 -0.3184 -0.3066
    1DIPC   C1B26073   5.020  17.724   3.996  0.1142 -0.0223  0.1548
    1DIPC   D2B26074   5.054  17.618   4.430  0.0685 -0.3055  0.0769
    1DIPC   D3B26075   4.979  17.943   4.455 -0.3121 -0.1133  0.2614
    1DIPC   C4B26076   4.855  18.177   4.070 -0.0846  0.1403 -0.6343
    1DIPC   NC326077  14.120   0.947   3.368 -0.1507  0.1915  0.3800
    1DIPC   PO426078  14.178   0.540   3.485 -0.3590 -0.1358 -0.0137
    1DIPC   GL126079  14.081   0.223   3.808 -0.2510  0.2900  0.2880
    1DIPC   GL226080  14.353  29.813   3.663 -0.3117  0.0060 -0.0545
    1DIPC   C1A26081  14.108   0.215   4.135  0.0197  0.0806  0.2437
    1DIPC   D2A26082  14.207   0.171   4.533  0.1479  0.2371  0.1040
    1DIPC   D3A26083  13.751   0.063   4.697 -0.0043  0.0634  0.1442
    1DIPC   C4A26084  13.603   0.240   5.070 -0.0687 -0.0300 -0.2835
    1DIPC   C1B26085  14.466  29.644   3.925  0.2145  0.0058 -0.0906
    1DIPC   D2B26086  14.607  29.486   4.360 -0.0243  0.1855  0.0797
    1DIPC   D3B26087  14.693   0.085   4.393 -0.0742 -0.0617  0.1327
    1DIPC   C4B26088  14.681   0.153   4.810  0.0560  0.0224 -0.1135
    1DIPC   NC326089  26.913  23.540   2.566 -0.1948 -0.3054 -0.1507
    1DIPC   PO426090  27.268  23.376   2.913 -0.2562 -0.4016  0.0220
    1DIPC   GL126091  27.578  23.444   3.254  0.1637  0.2696  0.3062
    1DIPC   GL226092  27.821  23.537   3.468 -0.3182 -0.1254  0.1801
    1DIPC   C1A26093  27.544  23.043   3.521  0.1171 -0.0563  0.1517
    1DIPC   D2A26094  27.327  22.914   3.874 -0.4097 -0.2369  0.2456
    1DIPC   D3A26095  27.228  23.246   4.217  0.1677 -0.0388 -0.0877
    1DIPC   C4A26096  27.469  23.499   4.469 -0.0647 -0.0820  0.1697
    1DIPC   C1B26097  28.230  23.732   3.675  0.1037  0.2399  0.0702
    1DIPC   D2B26098  28.463  23.622   4.016  0.2357  0.1977 -0.1649
    1DIPC   D3B26099  28.539  23.298   4.379 -0.1112  0.0207  0.0696
    1DIPC   C4B26100  28.358  22.916   4.512 -0.0931 -0.2989 -0.1025
    1DIPC   NC326101   0.210   1.744   2.529 -0.1896  0.4959 -0.3141
    1DIPC   PO426102   0.081   1.567   2.905 -0.0123  0.2045 -0.0502
    1DIPC   GL126103   0.377   1.547   3.291  0.0805  0.4475  0.3734
    1DIPC   GL226104   0.222   1.601   3.554  0.2306  0.0893 -0.0825
    1DIPC   C1A26105   0.418   1.111   3.541  0.2142 -0.2389 -0.1582
    1DIPC   D2A26106   0.556   1.007   4.028  0.1477 -0.0080  0.1938
    1DIPC   D3A26107   0.775   1.175   4.249  0.0976 -0.1778  0.1471
    1DIPC   C4A26108   1.219   1.057   4.368  0.0654 -0.0246  0.0569
    1DIPC   C1B26109   0.173   1.404   3.983 -0.1327 -0.2255  0.0032
    1DIPC   D2B26110  29.798   1.067   4.227 -0.0324 -0.1510  0.0702
    1DIPC   D3B26111  29.452   1.214   4.271 -0.1330  0.0296 -0.0691
    1DIPC   C4B26112  29.113   1.354   4.565 -0.1571  0.1702 -0.1492
    1DIPC   NC326113   9.495  22.409   2.056 -0.3555 -0.0139 -0.1353
    1DIPC   PO426114   9.736  22.767   2.208  0.0385  0.1730  0.1171
    1DIPC   GL126115   9.677  22.870   2.528  0.1076 -0.0647  0.2162
    1DIPC   GL226116   9.869  23.140   2.629 -0.4205 -0.2588  0.1124
    1DIPC   C1A26117   9.396  23.089   2.808  0.1671 -0.2629  0.1163
    1DIPC   D2A26118   9.527  23.318   3.073 -0.0317 -0.1211  0.0081
    1DIPC   D3A26119   9.765  23.645   2.977 -0.0563  0.1794  0.2392
    1DIPC   C4A26120  10.134  23.702   2.722  0.1300  0.2393  0.0697
    1DIPC   C1B26121  10.114  23.212   3.086  0.4457 -0.0704  0.0526
    1DIPC   D2B26122  10.572  23.438   2.994 -0.0462  0.1696  0.1450
    1DIPC   D3B26123  10.708  23.547   3.490  0.2947 -0.3311  0.3352
    1DIPC   C4B26124  11.150  23.506   3.555  0.2773 -0.2343  0.1026
    1DIPC   NC326125   9.567   2.176   3.839  0.0141 -0.1190  0.1124
    1DIPC   PO426126  10.032   2.195   3.900  0.0179 -0.1759 -0.0321
    1DIPC   GL126127  10.352   2.043   4.149  0.2920  0.0572  0.3716
    1DIPC   GL226128  10.411   2.190   4.350 -0.0731  0.3135  0.0868
    1DIPC   C1A26129  10.472   1.752   4.518 -0.2547 -0.2288  0.1641
    1DIPC   D2A26130  10.371   1.560   4.975  0.0544 -0.0900 -0.0254
    1DIPC   D3A26131  10.267   1.943   5.236 -0.2353  0.0628  0.2070
    1DIPC   C4A26132  10.315   2.327   5.068  0.2488  0.1623 -0.4291
    1DIPC   C1B26133  10.138   2.051   4.691 -0.2295 -0.1254 -0.0418
    1DIPC   D2B26134   9.764   1.975   4.965 -0.6393 -0.1475  0.0360
    1DIPC   D3B26135   9.908   1.600   5.190  0.0634 -0.1765  0.0584
    1DIPC   C4B26136   9.584   1.473   5.481  0.0977 -0.2071  0.1087
    1DIPC   NC326137   9.653  18.036   2.535 -0.3162 -0.3455 -0.1227
    1DIPC   PO426138  10.121  18.098   2.752 -0.4327 -0.0051 -0.1065
    1DIPC   GL126139  10.258  17.839   3.092 -0.1184  0.0241  0.1807
    1DIPC   GL226140  10.280  17.593   3.137  0.0510  0.1877  0.1034
    1DIPC   C1A26141  10.282  17.805   3.567  0.0902 -0.0542  0.1760
    1DIPC   D2A26142  10.377  18.102   3.847  0.1921  0.0964 -0.2967
    1DIPC   D3A26143  10.327  18.537   3.859  0.2311  0.1259  0.0274
    1DIPC   C4A26144  10.411  18.900   3.870 -0.2865 -0.4179  0.2047
    1DIPC   C1B26145  10.480  17.387   3.398  0.0644 -0.1161 -0.0846
    1DIPC   D2B26146  10.533  17.509   3.869  0.1111 -0.1479  0.3619
    1DIPC   D3B26147  10.620  17.047   3.831  0.1655  0.0507 -0.0307
    1DIPC   C4B26148  10.129  16.839   3.930 -0.0678 -0.2114  0.0696
    1DIPC   NC326149  11.450   8.737   2.897  0.1319 -0.1821 -0.0795
    1DIPC   PO426150  11.806   8.922   2.954 -0.1243  0.0928 -0.1820
    1DIPC   GL126151  11.997   9.122   3.293 -0.0316  0.0077 -0.1879
    1DIPC   GL226152  11.938   9.473   3.318  0.0756 -0.1881  0.2706
    1DIPC   C1A26153  11.955   9.182   3.729  0.0727  0.2865 -0.2626
    1DIPC   D2A26154  11.845   9.319   4.130  0.0120 -0.1425 -0.2981
    1DIPC   D3A26155  12.226   9.366   4.454  0.0289 -0.0378  0.3108
    1DIPC   C4A26156  12.352   9.387   4.901 -0.0309  0.0039  0.4339
    1DIPC   C1B26157  11.579   9.530   3.500  0.3583  0.0436  0.2987
    1DIPC   D2B26158  11.227   9.614   3.722 -0.2149 -0.1491 -0.1753
    1DIPC   D3B26159  11.069   9.688   4.176 -0.1939  0.2959 -0.0431
    1DIPC   C4B26160  11.284  10.070   4.442  0.1934 -0.1056 -0.0640
    1DIPC   NC326161  22.672  25.328   2.756  0.1285  0.0486 -0.1664
    1DIPC   PO426162  23.019  25.163   2.966  0.1806 -0.0433 -0.1412
    1DIPC   GL126163  22.960  25.004   3.379  0.0620 -0.3933 -0.2096
    1DIPC   GL226164  23.194  25.226   3.488 -0.1495  0.3339  0.1336
    1DIPC   C1A26165  22.950  24.821   3.708  0.0581  0.0973  0.4869
    1DIPC   D2A26166  22.974  24.754   4.167  0.1061  0.3774  0.2023
    1DIPC   D3A26167  22.945  25.152   4.274  0.1367  0.0234  0.0523
    1DIPC   C4A26168  22.566  25.308   4.396 -0.0736 -0.3245 -0.1330
    1DIPC   C1B26169  23.345  25.102   3.874 -0.1604  0.2046 -0.0963
    1DIPC   D2B26170  23.591  25.005   4.205  0.1678  0.0752 -0.0730
    1DIPC   D3B26171  23.479  24.626   4.005  0.1342 -0.0394  0.2573
    1DIPC   C4B26172  23.417  24.545   3.565  0.1535 -0.0833  0.2101
    1DIPC   NC326173  12.567  26.771   2.749 -0.0415 -0.0221 -0.1653
    1DIPC   PO426174  12.602  27.297   2.856 -0.0017 -0.1006  0.2808
    1DIPC   GL126175  12.478  27.181   3.199  0.0257 -0.3071 -0.0428
    1DIPC   GL226176  12.162  27.004   3.297 -0.1206  0.0761  0.0573
    1DIPC   C1A26177  12.367  27.488   3.475 -0.0466  0.0569 -0.0971
    1DIPC   D2A26178  12.183  27.826   3.665 -0.0158 -0.0895  0.0546
    1DIPC   D3A26179  12.194  27.617   4.074 -0.0584 -0.3258 -0.0500
    1DIPC   C4A26180  12.648  27.541   4.281 -0.0448 -0.1207  0.2614
    1DIPC   C1B26181  12.173  27.164   3.793 -0.1739  0.1253 -0.1176
    1DIPC   D2B26182  12.289  27.115   4.228 -0.0868 -0.1416  0.1718
    1DIPC   D3B26183  12.468  26.719   4.351 -0.0826  0.2320  0.0680
    1DIPC   C4B26184  12.167  26.448   4.315  0.3172 -0.0851 -0.0021
    1DIPC   NC326185  21.315  27.076   2.670  0.1378 -0.1617  0.0472
    1DIPC   PO426186  21.735  26.881   2.736  0.0849 -0.0704  0.1366
    1DIPC   GL126187  21.473  26.748   3.079  0.2124  0.0066  0.3566
    1DIPC   GL226188  21.718  26.865   3.363 -0.0307 -0.1550 -0.2288
    1DIPC   C1A26189  21.107  26.774   3.328  0.2273 -0.0260  0.0463
    1DIPC   D2A26190  20.941  26.536   3.704 -0.0840 -0.0851  0.3494
    1DIPC   D3A26191  20.595  26.569   4.093 -0.2203  0.0136 -0.0436
    1DIPC   C4A26192  20.815  26.518   4.519 -0.0273  0.2623  0.0273
    1DIPC   C1B26193  21.699  26.849   3.827 -0.1081  0.1023  0.1449
    1DIPC   D2B26194  21.373  26.570   4.085  0.0730  0.1605  0.1454
    1DIPC   D3B26195  21.278  26.760   4.486 -0.0158  0.2309  0.0958
    1DIPC   C4B26196  20.991  27.036   4.579  0.1641 -0.2703 -0.1047
    1DIPC   NC326197  17.716  27.472   2.974  0.2575  0.0713  0.1017
    1DIPC   PO426198  17.433  27.081   2.901  0.1370  0.0525  0.4120
    1DIPC   GL126199  17.736  27.048   3.274  0.2064 -0.2230 -0.0222
    1DIPC   GL226200  17.827  27.296   3.459 -0.3295  0.3091 -0.0204
    1DIPC   C1A26201  18.107  26.999   3.670  0.0772  0.0682 -0.4327
    1DIPC   D2A26202  18.350  26.780   4.067  0.1770 -0.3106 -0.1364
    1DIPC   D3A26203  18.226  26.370   4.212 -0.2451 -0.1886  0.1192
    1DIPC   C4A26204  17.907  26.218   4.527  0.0506 -0.0683  0.0471
    1DIPC   C1B26205  17.691  27.126   3.939  0.0045  0.0563 -0.1945
    1DIPC   D2B26206  17.870  26.833   4.160  0.2266  0.1983  0.2218
    1DIPC   D3B26207  17.662  26.459   4.160  0.1183  0.0331 -0.2801
    1DIPC   C4B26208  17.210  26.478   4.278 -0.0207 -0.0100  0.2621
    1DIPC   NC326209   9.273   0.053   2.865  0.0047 -0.1359 -0.2437
    1DIPC   PO426210   9.434  29.549   3.034  0.2190  0.1316  0.2755
    1DIPC   GL126211   9.665  29.431   3.410 -0.1234  0.0071  0.0204
    1DIPC   GL226212  10.020  29.498   3.455 -0.2493  0.1070  0.1407
    1DIPC   C1A26213   9.516  29.228   3.793  0.0838  0.0144  0.3626
    1DIPC   D2A26214   9.591  29.138   4.294  0.2923  0.1062  0.0838
    1DIPC   D3A26215   9.814  28.914   4.686  0.2024  0.0453  0.0313
    1DIPC   C4A26216   9.922  29.075   5.052 -0.2232  0.1472 -0.1669
    1DIPC   C1B26217  10.098  29.194   3.775  0.3512  0.1092  0.0069
    1DIPC   D2B26218  10.182  28.915   4.093  0.0376 -0.4932 -0.2776
    1DIPC   D3B26219  10.014  28.578   4.318  0.2870  0.0642  0.2019
    1DIPC   C4B26220  10.278  28.168   4.522  0.0331  0.2264  0.1025
    1DIPC   NC326221  19.390  25.843   1.753  0.2654  0.0793  0.2390
    1DIPC   PO426222  18.960  25.868   1.864  0.0836 -0.0701  0.2208
    1DIPC   GL126223  18.728  25.570   2.135 -0.3368  0.1079 -0.0790
    1DIPC   GL226224  18.782  25.228   2.288 -0.1262  0.0193 -0.1093
    1DIPC   C1A26225  18.465  25.600   2.538  0.1154  0.2707 -0.0432
    1DIPC   D2A26226  18.239  25.763   3.011  0.0296 -0.0006 -0.0264
    1DIPC   D3A26227  18.611  25.899   3.239  0.0044 -0.2358 -0.0305
    1DIPC   C4A26228  18.769  25.950   3.663  0.1595  0.0994 -0.1853
    1DIPC   C1B26229  18.602  25.028   2.514  0.1980  0.0232 -0.0061
    1DIPC   D2B26230  18.282  25.254   2.890 -0.1818 -0.0793  0.0963
    1DIPC   D3B26231  17.928  25.036   2.623 -0.1413 -0.2727 -0.3556
    1DIPC   C4B26232  17.762  24.708   2.417  0.0371  0.2833  0.2906
    1DIPC   NC326233  10.260   6.049   3.584  0.0120  0.1153  0.0950
    1DIPC   PO426234  10.076   5.619   3.600  0.1702  0.2419  0.0964
    1DIPC   GL126235   9.973   5.769   3.943 -0.0380 -0.1465 -0.0624
    1DIPC   GL226236  10.231   6.020   4.099 -0.2110  0.0049 -0.2746
    1DIPC   C1A26237   9.726   5.990   4.256  0.2502  0.2014 -0.0671
    1DIPC   D2A26238   9.508   5.820   4.601 -0.3903  0.1392 -0.1394
    1DIPC   D3A26239   9.676   5.662   5.114 -0.3243  0.0450 -0.0676
    1DIPC   C4A26240  10.106   5.663   5.128  0.5084  0.2423  0.1063
    1DIPC   C1B26241  10.083   6.379   4.403  0.0817  0.1853 -0.4381
    1DIPC   D2B26242   9.958   6.781   4.512 -0.3632  0.0908 -0.0061
    1DIPC   D3B26243  10.418   6.743   4.604 -0.1332 -0.1925 -0.1452
    1DIPC   C4B26244  10.542   6.442   4.698 -0.2733 -0.0926 -0.0072
    1DIPC   NC326245   7.045  13.469   2.137 -0.0076 -0.0307  0.1834
    1DIPC   PO426246   6.850  13.845   2.263  0.0304  0.0577  0.1458
    1DIPC   GL126247   6.523  13.820   2.632 -0.2403 -0.0128  0.0653
    1DIPC   GL226248   6.581  14.048   2.797  0.2842  0.0714  0.2749
    1DIPC   C1A26249   6.604  13.541   3.038  0.0102 -0.1421  0.0392
    1DIPC   D2A26250   6.404  13.301   3.325 -0.0519  0.2005 -0.2009
    1DIPC   D3A26251   6.332  13.136   2.984 -0.1749  0.1963  0.2544
    1DIPC   C4A26252   6.394  12.707   2.834 -0.3794 -0.0938  0.4101
    1DIPC   C1B26253   6.288  13.958   3.087 -0.0155  0.0490  0.0733
    1DIPC   D2B26254   6.095  14.270   3.429  0.2289  0.1884  0.0975
    1DIPC   D3B26255   5.923  13.840   3.580  0.0633 -0.0673  0.0725
    1DIPC   C4B26256   6.104  13.479   3.644  0.1064  0.0871  0.0709
    1DIPC   NC326257   8.785  11.490   3.272 -0.2018  0.0184  0.2174
    1DIPC   PO426258   9.131  11.775   3.121  0.0281  0.0818 -0.1941
    1DIPC   GL126259   8.981  11.884   3.476  0.0854  0.2693 -0.3384
    1DIPC   GL226260   8.893  11.701   3.704 -0.1722  0.0317 -0.2232
    1DIPC   C1A26261   9.026  12.159   3.853 -0.1226 -0.3040  0.4060
    1DIPC   D2A26262   9.437  12.348   4.052 -0.1266 -0.0799 -0.0508
    1DIPC   D3A26263   9.900  12.412   4.077  0.0614 -0.1923  0.1660
    1DIPC   C4A26264   9.881  12.402   3.595 -0.2276  0.2031  0.2149
    1DIPC   C1B26265   8.610  11.903   3.879 -0.0600  0.0277  0.1944
    1DIPC   D2B26266   8.682  11.910   4.300 -0.2256 -0.4119 -0.1480
    1DIPC   D3B26267   9.040  12.071   4.299  0.2938  0.1983 -0.3389
    1DIPC   C4B26268   9.374  12.211   4.656  0.1230 -0.0102 -0.1382
    1DIPC   NC326269  12.641  10.982   2.638 -0.0797 -0.1834 -0.1442
    1DIPC   PO426270  13.195  11.045   2.494  0.0024  0.1325  0.3374
    1DIPC   GL126271  13.275  11.060   2.873  0.2123  0.1613 -0.0191
    1DIPC   GL226272  13.310  11.408   2.939 -0.0428 -0.0017  0.1357
    1DIPC   C1A26273  13.390  10.933   3.297  0.2452  0.1702  0.3024
    1DIPC   D2A26274  13.487  10.931   3.798 -0.5394 -0.1869  0.2234
    1DIPC   D3A26275  13.870  11.084   4.048 -0.2521  0.0703 -0.1098
    1DIPC   C4A26276  14.149  10.998   4.025 -0.3170  0.1627 -0.1476
    1DIPC   C1B26277  13.304  11.406   3.448  0.0180 -0.0438  0.1741
    1DIPC   D2B26278  13.285  11.388   3.895 -0.2186  0.1358 -0.0743
    1DIPC   D3B26279  13.293  11.679   4.240 -0.0894 -0.0224 -0.1217
    1DIPC   C4B26280  13.078  11.981   4.370  0.0694 -0.2823  0.0203
    1DIPC   NC326281  18.213   5.390   3.467 -0.0011  0.2696  0.3194
    1DIPC   PO426282  17.741   5.264   3.335 -0.0581  0.0187  0.0073
    1DIPC   GL126283  17.668   5.486   3.695 -0.2360 -0.0622  0.0868
    1DIPC   GL226284  17.988   5.466   3.909  0.2790  0.1466  0.0189
    1DIPC   C1A26285  17.614   5.860   3.908 -0.1301  0.1421 -0.1674
    1DIPC   D2A26286  17.750   6.250   4.120  0.0771  0.1999  0.1955
    1DIPC   D3A26287  17.415   6.360   4.377  0.1849 -0.3695  0.1882
    1DIPC   C4A26288  17.437   6.453   4.743  0.0882 -0.1928 -0.1366
    1DIPC   C1B26289  17.865   5.210   4.184  0.1320 -0.0792 -0.2282
    1DIPC   D2B26290  17.873   4.976   4.609  0.0831  0.0853 -0.2349
    1DIPC   D3B26291  17.793   4.936   5.019  0.0591  0.2047 -0.1364
    1DIPC   C4B26292  17.818   4.659   5.302 -0.1199 -0.0722 -0.0041
    1DIPC   NC326293   4.766  10.954   2.548  0.0876  0.3702  0.1209
    1DIPC   PO426294   5.092  10.621   2.709 -0.0224 -0.1004  0.2494
    1DIPC   GL126295   5.082  10.873   3.068 -0.2809  0.0968  0.2118
    1DIPC   GL226296   4.898  10.861   3.359  0.2548  0.3832 -0.0904
    1DIPC   C1A26297   5.435  11.007   3.355  0.0413 -0.0653 -0.2467
    1DIPC   D2A26298   5.554  10.830   3.661  0.0159  0.0669  0.1619
    1DIPC   D3A26299   5.787  10.625   3.877  0.0433 -0.1891  0.0521
    1DIPC   C4A26300   6.142  10.441   3.654  0.0319 -0.0451  0.0925
    1DIPC   C1B26301   4.447  10.743   3.428 -0.0538  0.2075 -0.0011
    1DIPC   D2B26302   4.323  10.735   3.826 -0.1520 -0.1064 -0.0639
    1DIPC   D3B26303   3.855  10.932   3.894 -0.1113 -0.1127 -0.0369
    1DIPC   C4B26304   3.453  10.982   4.171  0.0433 -0.1529 -0.4614
    1DIPC   NC326305  12.899  14.460   2.508  0.0842 -0.1608  0.1135
    1DIPC   PO426306  13.221  14.674   2.823 -0.0755 -0.0075  0.2525
    1DIPC   GL126307  13.134  14.961   3.099  0.1157 -0.1039 -0.0775
    1DIPC   GL226308  12.842  15.115   2.944 -0.2071 -0.2503 -0.0901
    1DIPC   C1A26309  13.013  14.899   3.414  0.1290  0.2500 -0.0501
    1DIPC   D2A26310  13.056  14.990   3.859  0.1829 -0.1858  0.2166
    1DIPC   D3A26311  13.093  14.616   4.050 -0.0822  0.0314 -0.2557
    1DIPC   C4A26312  13.531  14.535   4.153  0.3100 -0.3037 -0.2921
    1DIPC   C1B26313  12.863  15.381   3.369  0.0412  0.0718 -0.0109
    1DIPC   D2B26314  12.856  15.436   3.794 -0.4327 -0.0655  0.3383
    1DIPC   D3B26315  12.968  15.363   4.223 -0.1183 -0.2022  0.0020
    1DIPC   C4B26316  12.662  15.184   4.503  0.0473 -0.1819  0.3070
    1DIPC   NC326317  11.819  10.017   2.171 -0.0984 -0.2299  0.1513
    1DIPC   PO426318  12.020   9.901   2.546 -0.1308  0.1566  0.0297
    1DIPC   GL126319  11.994   9.997   3.070 -0.1095 -0.2025  0.1201
    1DIPC   GL226320  12.207   9.886   3.392 -0.1626 -0.0865 -0.0553
    1DIPC   C1A26321  12.019  10.384   3.352  0.0797  0.0750 -0.0378
    1DIPC   D2A26322  12.070  10.674   3.710  0.3098  0.1738  0.1392
    1DIPC   D3A26323  11.860  10.742   4.131  0.3023 -0.1458  0.1459
    1DIPC   C4A26324  12.145  10.731   4.523  0.1977  0.0826  0.2666
    1DIPC   C1B26325  12.258  10.111   3.746  0.1364 -0.1258 -0.4104
    1DIPC   D2B26326  12.179  10.268   4.110  0.1174 -0.0349  0.3892
    1DIPC   D3B26327  12.476  10.168   4.460  0.0136 -0.2077  0.2692
    1DIPC   C4B26328  12.823  10.141   4.734 -0.1750  0.1066 -0.1868
    1DIPC   NC326329  29.683   0.205   2.677  0.0093  0.2479  0.0932
    1DIPC   PO426330   0.206  29.797   2.327 -0.0598 -0.0405 -0.1406
    1DIPC   GL126331   0.422  29.736   2.681 -0.1431  0.0066  0.1606
    1DIPC   GL226332   0.357  29.713   2.888  0.0647 -0.1105 -0.1444
    1DIPC   C1A26333   0.483   0.297   3.094  0.1625  0.0994 -0.1009
    1DIPC   D2A26334   0.341   0.652   3.230  0.3642 -0.2280 -0.4639
    1DIPC   D3A26335   0.700   0.691   3.518  0.1058  0.0372 -0.0332
    1DIPC   C4A26336   0.782   0.222   3.558  0.0938  0.0987 -0.1314
    1DIPC   C1B26337   0.388  29.611   3.313  0.1713 -0.1204  0.1953
    1DIPC   D2B26338   0.419  29.683   3.737 -0.0809 -0.0400  0.1428
    1DIPC   D3B26339   0.073  29.778   3.917  0.2339  0.0841  0.2766
    1DIPC   C4B26340   0.033   0.060   4.328 -0.1088 -0.1448  0.2713
    1DIPC   NC326341  12.762   4.006   3.852  0.1002 -0.0107  0.0963
    1DIPC   PO426342  12.644   4.451   3.854 -0.1198  0.0477 -0.0723
    1DIPC   GL126343  12.603   4.266   4.327 -0.0128 -0.0421 -0.2153
    1DIPC   GL226344  12.646   3.977   4.320 -0.0893 -0.1261 -0.0215
    1DIPC   C1A26345  12.579   4.276   4.792  0.0013 -0.3769  0.1479
    1DIPC   D2A26346  12.355   4.539   4.993  0.1069  0.0046 -0.0213
    1DIPC   D3A26347  12.628   4.304   5.268 -0.0838  0.1752  0.1922
    1DIPC   C4A26348  12.837   4.048   5.586  0.0916 -0.0213  0.1246
    1DIPC   C1B26349  12.571   3.718   4.648 -0.0497 -0.2668  0.1159
    1DIPC   D2B26350  12.528   3.629   5.075  0.1008 -0.1991  0.1839
    1DIPC   D3B26351  12.196   3.862   4.985 -0.0523  0.0004 -0.0470
    1DIPC   C4B26352  11.967   4.190   5.020 -0.1855 -0.0623  0.1905
    1DIPC   NC326353  25.264  26.064   2.884  0.1022  0.3377  0.2876
    1DIPC   PO426354  25.655  26.222   2.904 -0.0182  0.1924 -0.0272
    1DIPC   GL126355  25.699  26.160   3.313  0.0119 -0.0490  0.0019
    1DIPC   GL226356  25.753  26.557   3.278 -0.1417  0.0463 -0.3729
    1DIPC   C1A26357  25.761  26.237   3.734  0.3782  0.1000 -0.1161
    1DIPC   D2A26358  25.750  26.427   4.090  0.3648 -0.0395 -0.2749
    1DIPC   D3A26359  25.338  26.533   4.041  0.1116  0.3109 -0.2281
    1DIPC   C4A26360  25.241  26.492   4.483 -0.0760 -0.0038 -0.3195
    1DIPC   C1B26361  25.636  26.737   3.700  0.0265 -0.1422 -0.0324
    1DIPC   D2B26362  25.785  26.912   4.026 -0.2262 -0.0718 -0.0710
    1DIPC   D3B26363  26.010  27.037   4.384  0.0461 -0.0843 -0.2286
    1DIPC   C4B26364  25.900  27.279   4.742  0.0197  0.1087 -0.3665
    1DIPC   NC326365  13.319  19.557   1.841  0.0618 -0.1097  0.2235
    1DIPC   PO426366  12.957  19.271   2.011  0.0214  0.1509 -0.2231
    1DIPC   GL126367  13.298  19.169   2.374  0.1046  0.0028  0.0736
    1DIPC   GL226368  13.226  18.924   2.569  0.0091 -0.0044 -0.0869
    1DIPC   C1A26369  13.701  18.990   2.559 -0.4115 -0.0044  0.0359
    1DIPC   D2A26370  14.039  18.912   2.380  0.1279 -0.0600  0.2602
    1DIPC   D3A26371  14.120  19.233   2.535  0.1000 -0.1530 -0.0999
    1DIPC   C4A26372  14.056  19.326   3.060  0.0896  0.4238  0.0097
    1DIPC   C1B26373  13.144  19.256   2.812 -0.1559 -0.1397 -0.1443
    1DIPC   D2B26374  13.029  19.339   3.218 -0.1716  0.0684 -0.0197
    1DIPC   D3B26375  13.282  19.173   3.546 -0.1939  0.2752 -0.1887
    1DIPC   C4B26376  13.399  18.694   3.495 -0.2953  0.1114 -0.0015
    1DIPC   NC326377   6.035  21.712   1.913  0.1014 -0.1160 -0.0023
    1DIPC   PO426378   5.860  21.288   2.098 -0.4820 -0.0249  0.0829
    1DIPC   GL126379   6.052  21.132   2.499 -0.0795 -0.0382  0.0249
    1DIPC   GL226380   6.425  21.062   2.567  0.3664 -0.1491 -0.3727
    1DIPC   C1A26381   5.934  21.334   2.944  0.0438  0.0753  0.0581
    1DIPC   D2A26382   5.832  21.664   3.290  0.3238  0.2495  0.2430
    1DIPC   D3A26383   5.623  21.628   3.712  0.1135  0.2504  0.0341
    1DIPC   C4A26384   5.542  21.937   4.010  0.4370 -0.1595 -0.0087
    1DIPC   C1B26385   6.523  21.296   2.897  0.1322 -0.1160 -0.0895
    1DIPC   D2B26386   6.652  21.444   3.224 -0.1925  0.2994  0.2678
    1DIPC   D3B26387   6.539  21.728   3.530  0.0311 -0.0111  0.0759
    1DIPC   C4B26388   6.511  22.002   3.915  0.0526 -0.1680 -0.0395
    1DIPC   NC326389   2.428  29.261   1.987  0.0598  0.0196  0.0716
    1DIPC   PO426390   2.272  29.582   2.243 -0.0205  0.2021 -0.3218
    1DIPC   GL126391   2.496  29.484   2.538 -0.2405 -0.1072 -0.0324
    1DIPC   GL226392   2.459  29.782   2.756  0.1802  0.0853  0.1695
    1DIPC   C1A26393   2.705  29.246   2.864 -0.1883 -0.4625 -0.2514
    1DIPC   D2A26394   2.897  29.112   3.166  0.0691  0.1362  0.1097
    1DIPC   D3A26395   2.934  29.465   3.505 -0.3969 -0.0540  0.0640
    1DIPC   C4A26396   3.068  29.775   3.866  0.1031  0.0542  0.1669
    1DIPC   C1B26397   2.191   0.229   2.597 -0.0543  0.1337  0.0992
    1DIPC   D2B26398   1.738   0.276   2.662 -0.3044 -0.1251  0.1179
    1DIPC   D3B26399   1.713   0.496   3.043  0.1963  0.0453  0.2149
    1DIPC   C4B26400   1.623   0.189   3.395 -0.1596  0.2652 -0.0313
    1DIPC   NC326401   7.828   0.675   2.930 -0.0200  0.0655 -0.0741
    1DIPC   PO426402   7.527   1.024   2.852  0.1037  0.2059  0.1547
    1DIPC   GL126403   7.286   1.070   3.250 -0.2268  0.0420  0.1123
    1DIPC   GL226404   7.515   1.180   3.463  0.0590 -0.2476 -0.1150
    1DIPC   C1A26405   6.975   1.316   3.406 -0.1611  0.2693  0.0093
    1DIPC   D2A26406   6.806   1.329   3.827 -0.1391  0.4308 -0.0146
    1DIPC   D3A26407   7.191   1.333   3.848 -0.0644 -0.3257 -0.3010
    1DIPC   C4A26408   7.401   1.699   4.003  0.0077 -0.1566  0.0696
    1DIPC   C1B26409   7.609   1.021   3.898 -0.0357 -0.1589 -0.0809
    1DIPC   D2B26410   7.572   0.778   4.212 -0.0542  0.0190  0.0436
    1DIPC   D3B26411   7.544   0.979   4.633 -0.1161 -0.0778 -0.0632
    1DIPC   C4B26412   7.121   1.077   4.848  0.1456 -0.0103 -0.0467
    1DIPC   NC326413  21.841   0.187   3.671  0.1186  0.2955 -0.1138
    1DIPC   PO426414  22.224   0.321   3.346 -0.1331 -0.1344 -0.0128
    1DIPC   GL126415  22.406   0.300   3.757  0.1621  0.0977  0.0632
    1DIPC   GL226416  22.340   0.603   3.914  0.2765  0.3563  0.1803
    1DIPC   C1A26417  22.301   0.077   4.071 -0.2390 -0.0737 -0.1064
    1DIPC   D2A26418  21.926  29.843   4.172  0.3642  0.3169 -0.0627
    1DIPC   D3A26419  22.276   0.052   4.526  0.1006 -0.3028 -0.1735
    1DIPC   C4A26420  22.616  29.594   4.656  0.0790 -0.2154 -0.3252
    1DIPC   C1B26421  22.140   0.570   4.328  0.3462 -0.2638 -0.1012
    1DIPC   D2B26422  22.210   0.469   4.745  0.4165 -0.3515  0.3175
    1DIPC   D3B26423  21.929   0.225   4.848 -0.1268 -0.0723 -0.2696
    1DIPC   C4B26424  21.917  29.715   5.203  0.1657  0.2498  0.2011
    1DIPC   NC326425   7.421  26.479   2.353 -0.1859 -0.0582 -0.0085
    1DIPC   PO426426   7.076  26.830   2.526 -0.2619 -0.0743  0.1046
    1DIPC   GL126427   7.002  26.429   2.701 -0.2038  0.2122 -0.0159
    1DIPC   GL226428   6.958  26.140   2.701  0.4344  0.0676 -0.1963
    1DIPC   C1A26429   7.251  26.282   3.029  0.0980  0.0274  0.1809
    1DIPC   D2A26430   7.379  26.405   3.410 -0.0284 -0.0064  0.3298
    1DIPC   D3A26431   7.447  26.808   3.153 -0.2111 -0.2037  0.1697
    1DIPC   C4A26432   7.714  27.156   3.112 -0.0423  0.0386  0.4322
    1DIPC   C1B26433   7.074  25.847   3.034 -0.0651  0.1142  0.0950
    1DIPC   D2B26434   7.329  25.594   3.365  0.1057  0.0809 -0.4133
    1DIPC   D3B26435   7.323  25.918   3.652  0.0419 -0.1379 -0.3683
    1DIPC   C4B26436   7.619  26.054   3.923  0.0677 -0.2694  0.2452
    1DIPC   NC326437   8.890   1.429   2.674  0.1126  0.3690 -0.0348
    1DIPC   PO426438   8.837   1.512   3.117 -0.0595 -0.0967  0.3033
    1DIPC   GL126439   8.729   1.585   3.640 -0.0716  0.1593 -0.1176
    1DIPC   GL226440   8.415   1.451   3.835  0.0620  0.0532 -0.0018
    1DIPC   C1A26441   8.798   1.613   4.118 -0.2157 -0.0427 -0.2994
    1DIPC   D2A26442   8.718   1.887   4.477 -0.1435  0.0514  0.0605
    1DIPC   D3A26443   9.095   2.073   4.355  0.2628 -0.0809  0.1635
    1DIPC   C4A26444   9.344   1.723   4.123  0.2318  0.2023 -0.1457
    1DIPC   C1B26445   8.312   1.384   4.291  0.0032 -0.0760 -0.0431
    1DIPC   D2B26446   8.567   1.433   4.602 -0.0086 -0.4023 -0.0302
    1DIPC   D3B26447   8.815   1.625   4.875 -0.1865 -0.0212  0.1082
    1DIPC   C4B26448   8.747   1.996   5.171  0.1167 -0.2088 -0.1694
    1DIPC   NC326449   6.399  27.941   2.109 -0.1298 -0.1156 -0.0440
    1DIPC   PO426450   6.771  27.792   2.339 -0.2003 -0.0099  0.0086
    1DIPC   GL126451   6.712  27.600   2.693  0.0551 -0.0537 -0.1001
    1DIPC   GL226452   6.576  27.328   2.806 -0.0128 -0.0829  0.0640
    1DIPC   C1A26453   6.417  27.608   3.161  0.3016 -0.0512 -0.0131
    1DIPC   D2A26454   5.999  27.556   3.132 -0.0080 -0.1670 -0.2820
    1DIPC   D3A26455   6.052  27.458   3.425  0.0847 -0.1567  0.0427
    1DIPC   C4A26456   5.799  27.719   3.679  0.2042 -0.1652 -0.2542
    1DIPC   C1B26457   6.210  27.120   2.948  0.0869  0.1466  0.4485
    1DIPC   D2B26458   5.853  27.116   2.872  0.1292  0.3316  0.0218
    1DIPC   D3B26459   5.556  27.014   3.111 -0.1463  0.5257 -0.1631
    1DIPC   C4B26460   5.308  26.908   2.715  0.0512 -0.0016  0.1544
    1DIPC   NC326461   1.134  26.760   1.589 -0.0366  0.0628  0.1160
    1DIPC   PO426462   1.296  26.314   1.726 -0.1875 -0.0686 -0.1249
    1DIPC   GL126463   1.455  26.117   2.121 -0.2303  0.1108  0.1381
    1DIPC   GL226464   1.243  26.273   2.277  0.2832  0.0687  0.0544
    1DIPC   C1A26465   1.597  26.074   2.517  0.0533  0.0749  0.0903
    1DIPC   D2A26466   2.004  25.960   2.757  0.2497  0.0458 -0.1259
    1DIPC   D3A26467   1.892  26.328   3.038 -0.0886 -0.4651 -0.0695
    1DIPC   C4A26468   1.587  26.569   3.164 -0.0073  0.0684  0.2696
    1DIPC   C1B26469   0.871  26.138   2.365 -0.0213  0.0824  0.1295
    1DIPC   D2B26470   0.496  26.090   2.648 -0.0163 -0.3826  0.1771
    1DIPC   D3B26471   0.800  26.144   2.939  0.1044 -0.2044 -0.0814
    1DIPC   C4B26472   1.216  26.374   2.730 -0.1411 -0.3648 -0.1069
    1DIPC   NC326473   8.139  26.347   2.233 -0.1183  0.1621  0.1288
    1DIPC   PO426474   7.945  26.297   2.540 -0.2831 -0.0613 -0.0489
    1DIPC   GL126475   8.129  25.981   2.732  0.1850  0.0043  0.1892
    1DIPC   GL226476   8.486  25.840   2.707 -0.0892 -0.1680 -0.0159
    1DIPC   C1A26477   8.235  25.806   3.188  0.0561  0.3377  0.1104
    1DIPC   D2A26478   8.573  25.603   3.343 -0.0893  0.2382  0.1397
    1DIPC   D3A26479   8.493  25.825   3.713 -0.1483 -0.2328  0.5088
    1DIPC   C4A26480   8.229  26.110   3.911  0.0830 -0.0997 -0.2520
    1DIPC   C1B26481   8.456  25.498   2.846 -0.0226 -0.1563 -0.3081
    1DIPC   D2B26482   8.345  25.194   3.117 -0.3075  0.1577  0.1155
    1DIPC   D3B26483   8.002  24.993   3.348  0.0107  0.1616  0.0642
    1DIPC   C4B26484   8.095  24.932   3.861  0.1523  0.1042  0.0678
    1DIPC   NC326485  25.584   7.748   2.669  0.2442 -0.1870  0.1891
    1DIPC   PO426486  25.283   7.790   3.005 -0.0633 -0.3409 -0.1888
    1DIPC   GL126487  25.279   7.621   3.362  0.4652 -0.0171 -0.0530
    1DIPC   GL226488  25.409   7.962   3.557  0.0062 -0.1416 -0.0446
    1DIPC   C1A26489  25.008   7.719   3.842 -0.0481 -0.0122 -0.0234
    1DIPC   D2A26490  24.894   7.554   4.143 -0.3799 -0.0878  0.2425
    1DIPC   D3A26491  25.149   7.673   4.534  0.0541  0.0433 -0.2842
    1DIPC   C4A26492  25.273   7.410   4.780  0.0858  0.1437 -0.0049
    1DIPC   C1B26493  25.436   7.772   4.019  0.0011  0.1363 -0.0691
    1DIPC   D2B26494  25.450   7.389   4.265  0.0464 -0.0434 -0.0639
    1DIPC   D3B26495  25.711   7.214   4.641  0.1045  0.1705  0.1228
    1DIPC   C4B26496  25.655   6.714   4.771  0.1314  0.0256 -0.0574
    1DIPC   NC326497   6.069  16.177   2.024  0.0952 -0.3421 -0.0427
    1DIPC   PO426498   6.262  16.176   2.421 -0.0895 -0.0485  0.0472
    1DIPC   GL126499   6.331  16.160   2.918 -0.2079 -0.1110 -0.1187
    1DIPC   GL226500   6.227  16.333   3.180 -0.4140 -0.1325 -0.1078
    1DIPC   C1A26501   6.673  16.179   3.292  0.2988  0.1631  0.1025
    1DIPC   D2A26502   7.010  16.307   3.096 -0.1627 -0.1054 -0.1139
    1DIPC   D3A26503   6.749  16.619   2.877  0.1091  0.0091 -0.1794
    1DIPC   C4A26504   6.530  16.784   3.187 -0.1757  0.1975 -0.4300
    1DIPC   C1B26505   6.182  16.424   3.697 -0.0904  0.0898  0.1085
    1DIPC   D2B26506   6.345  16.336   4.228 -0.1594  0.1429  0.1147
    1DIPC   D3B26507   6.946  16.410   4.275  0.1411 -0.3852  0.3078
    1DIPC   C4B26508   7.331  16.464   4.401  0.0637  0.4195 -0.4069
    1DIPC   NC326509  10.158  18.941   2.578  0.2442  0.0639 -0.0451
    1DIPC   PO426510   9.838  19.036   2.796 -0.0441  0.3114  0.1394
    1DIPC   GL126511   9.994  19.199   3.263 -0.1466 -0.1509 -0.3664
    1DIPC   GL226512  10.328  19.194   3.376 -0.2218 -0.1169  0.4341
    1DIPC   C1A26513   9.948  19.504   3.638 -0.0855 -0.0841  0.4505
    1DIPC   D2A26514  10.094  19.807   3.989 -0.0181  0.0619 -0.0277
    1DIPC   D3A26515  10.258  19.968   3.671 -0.3754  0.1495 -0.1569
    1DIPC   C4A26516  10.043  19.892   3.281  0.2008 -0.0318  0.3994
    1DIPC   C1B26517  10.233  18.732   3.440 -0.0300  0.1606 -0.1105
    1DIPC   D2B26518  10.669  18.595   3.516 -0.3908 -0.3005 -0.1258
    1DIPC   D3B26519  10.510  18.255   3.298  0.0556  0.1425  0.2011
    1DIPC   C4B26520  10.094  18.228   3.405  0.4236  0.1346  0.3943
    1DIPC   NC326521  29.719  18.149   2.712  0.1230 -0.1410  0.3027
    1DIPC   PO426522   0.168  18.220   3.029  0.2631  0.0841 -0.1722
    1DIPC   GL126523  29.749  18.500   3.373  0.1717 -0.1418 -0.0150
    1DIPC   GL226524  29.400  18.652   3.312  0.1253 -0.0230  0.0042
    1DIPC   C1A26525  29.739  18.600   3.796 -0.0588  0.1125 -0.0284
    1DIPC   D2A26526   0.037  18.356   4.205 -0.0557  0.1968 -0.2212
    1DIPC   D3A26527   0.429  18.574   4.236  0.0879  0.3342 -0.4727
    1DIPC   C4A26528   0.411  18.990   4.409  0.1796  0.0345 -0.0061
    1DIPC   C1B26529  29.309  18.388   3.752 -0.3033 -0.1436 -0.0727
    1DIPC   D2B26530  29.183  17.996   3.954 -0.0730 -0.1011  0.0282
    1DIPC   D3B26531  29.481  18.085   4.157  0.1337  0.2046  0.0523
    1DIPC   C4B26532   0.015  18.021   3.790  0.0592 -0.0125  0.2378
    1DIPC   NC326533   2.123  10.280   2.594  0.1103 -0.2731  0.3266
    1DIPC   PO426534   2.316   9.974   2.831 -0.2467  0.0199 -0.0812
    1DIPC   GL126535   2.191   9.610   2.974 -0.1763  0.2284  0.0516
    1DIPC   GL226536   1.849   9.538   3.001 -0.1837 -0.0615  0.2985
    1DIPC   C1A26537   2.308   9.580   3.418 -0.2057  0.0821  0.1470
    1DIPC   D2A26538   2.219   9.690   3.862  0.1600  0.1413 -0.2560
    1DIPC   D3A26539   1.724   9.589   3.916  0.0565 -0.0715  0.0684
    1DIPC   C4A26540   1.458   9.316   4.231  0.0521 -0.0342  0.0927
    1DIPC   C1B26541   1.785   9.324   3.420  0.2034  0.0087 -0.2703
    1DIPC   D2B26542   1.624   8.894   3.388 -0.2661  0.1117 -0.0795
    1DIPC   D3B26543   1.949   8.597   3.725  0.2733 -0.3485 -0.1133
    1DIPC   C4B26544   2.331   8.777   3.855  0.3395  0.2026 -0.2222
    1DIPC   NC326545  27.538  21.229   2.666 -0.1748  0.0686  0.2929
    1DIPC   PO426546  27.964  21.331   2.908 -0.0487 -0.2906  0.0046
    1DIPC   GL126547  27.887  21.460   3.358  0.0029 -0.2177  0.0669
    1DIPC   GL226548  28.077  21.704   3.312  0.2027 -0.0711  0.1505
    1DIPC   C1A26549  27.658  21.354   3.733 -0.0345 -0.2131 -0.1371
    1DIPC   D2A26550  27.312  21.130   3.788  0.1229 -0.0989 -0.0041
    1DIPC   D3A26551  27.421  20.778   3.729 -0.2529 -0.2815  0.1877
    1DIPC   C4A26552  27.871  20.866   3.684  0.0873  0.2457 -0.0158
    1DIPC   C1B26553  28.211  21.898   3.676  0.0226  0.0301 -0.0521
    1DIPC   D2B26554  28.419  22.113   4.012 -0.0681  0.2505 -0.1160
    1DIPC   D3B26555  28.859  22.156   3.827 -0.3326 -0.2432  0.1905
    1DIPC   C4B26556  29.189  21.961   3.546  0.1335 -0.2095  0.1230
    1DIPC   NC326557  22.852   0.559   3.773  0.1429 -0.0721 -0.4262
    1DIPC   PO426558  23.244   0.501   3.522 -0.0187  0.1551 -0.1440
    1DIPC   GL126559  23.328   0.626   3.983  0.1259 -0.0472  0.0216
    1DIPC   GL226560  23.608   0.442   4.074  0.0051 -0.2958 -0.2526
    1DIPC   C1A26561  23.230   0.413   4.390 -0.0193  0.2753 -0.2901
    1DIPC   D2A26562  23.304   0.500   4.830  0.1813 -0.2711  0.1967
    1DIPC   D3A26563  22.981   0.331   5.163 -0.1922  0.1339  0.2193
    1DIPC   C4A26564  22.742   0.404   5.395 -0.0668  0.0854  0.1104
    1DIPC   C1B26565  23.808   0.557   4.439  0.1748  0.1172 -0.1341
    1DIPC   D2B26566  23.792   0.302   4.850  0.0482 -0.0882  0.1325
    1DIPC   D3B26567  24.119   0.704   5.002 -0.3591  0.0579  0.2080
    1DIPC   C4B26568  24.530   0.718   4.900 -0.1864 -0.0683 -0.1643
    1DIPC   NC326569  10.104  15.186   1.910  0.2305  0.1687 -0.0240
    1DIPC   PO426570  10.183  15.402   2.360 -0.2507 -0.0902 -0.4031
    1DIPC   GL126571  10.213  15.253   2.835 -0.1598  0.1571  0.2533
    1DIPC   GL226572   9.999  15.368   3.096  0.0474  0.1764 -0.3721
    1DIPC   C1A26573  10.490  14.972   3.001  0.1648 -0.0991  0.2211
    1DIPC   D2A26574  10.853  14.789   2.870 -0.1124 -0.2698 -0.0015
    1DIPC   D3A26575  11.170  14.698   3.085 -0.1690  0.1443  0.0870
    1DIPC   C4A26576  11.265  14.824   3.518  0.0326  0.0696 -0.4009
    1DIPC   C1B26577   9.968  14.950   3.423  0.1577 -0.2860  0.2984
    1DIPC   D2B26578  10.197  14.761   3.676 -0.1307  0.4601  0.0193
    1DIPC   D3B26579  10.633  14.665   3.777  0.1598 -0.0935  0.0788
    1DIPC   C4B26580  10.811  14.790   4.075 -0.1123 -0.1279 -0.0296
    1DIPC   NC326581  23.827  24.061   2.688 -0.3113 -0.1950  0.1795
    1DIPC   PO426582  23.864  23.997   3.102 -0.2695  0.1761 -0.1889
    1DIPC   GL126583  23.650  23.826   3.480  0.0030 -0.1691 -0.0322
    1DIPC   GL226584  23.922  23.833   3.624  0.0781  0.1505  0.1746
    1DIPC   C1A26585  23.452  23.777   3.833 -0.0055  0.2047 -0.1962
    1DIPC   D2A26586  23.277  23.633   4.295  0.5234  0.2116  0.0995
    1DIPC   D3A26587  23.348  23.516   4.726  0.0046  0.0107 -0.0611
    1DIPC   C4A26588  23.681  23.477   4.971 -0.0104 -0.0938 -0.2868
    1DIPC   C1B26589  23.801  24.218   3.937  0.2681 -0.2739  0.1646
    1DIPC   D2B26590  23.877  24.507   4.288  0.2290  0.0943 -0.0020
    1DIPC   D3B26591  23.567  24.577   4.575 -0.1288 -0.4150  0.2230
    1DIPC   C4B26592  23.303  24.897   4.564  0.0945  0.1469 -0.0235
    1DIPC   NC326593  11.218  12.092   2.311 -0.1314 -0.0611 -0.0851
    1DIPC   PO426594  11.240  12.161   2.914  0.2554  0.2318  0.1507
    1DIPC   GL126595  11.264  12.140   3.423  0.1069  0.1243 -0.1695
    1DIPC   GL226596  11.025  12.319   3.470  0.0814 -0.1339  0.0205
    1DIPC   C1A26597  11.171  11.745   3.774  0.2053  0.2079 -0.1571
    1DIPC   D2A26598  10.975  11.571   4.049  0.2389 -0.0863 -0.3924
    1DIPC   D3A26599  10.997  11.803   4.456 -0.1807 -0.0213 -0.1038
    1DIPC   C4A26600  10.679  11.821   4.727  0.0370  0.2273  0.1600
    1DIPC   C1B26601  11.211  12.322   3.885  0.0388  0.0157 -0.1132
    1DIPC   D2B26602  11.386  11.955   4.188  0.1910  0.0079 -0.1887
    1DIPC   D3B26603  11.441  11.540   4.187  0.0015  0.0532 -0.0468
    1DIPC   C4B26604  11.232  11.314   4.407 -0.1171  0.1126  0.2146
    1DIPC   NC326605  11.179  12.607   3.079 -0.2686  0.0193 -0.0930
    1DIPC   PO426606  11.238  13.051   3.039 -0.2570  0.3570 -0.1746
    1DIPC   GL126607  11.289  13.120   3.417  0.2449  0.1421  0.1967
    1DIPC   GL226608  11.279  12.773   3.641 -0.0158 -0.2994  0.0866
    1DIPC   C1A26609  11.123  13.411   3.766 -0.1455 -0.1107 -0.1619
    1DIPC   D2A26610  11.053  13.813   3.929  0.4345 -0.0323 -0.2345
    1DIPC   D3A26611  11.014  13.696   4.309  0.2317 -0.3233 -0.1775
    1DIPC   C4A26612  10.997  13.442   4.695 -0.0270  0.1531  0.2498
    1DIPC   C1B26613  11.597  12.591   3.692 -0.3388 -0.1085  0.1975
    1DIPC   D2B26614  11.679  12.333   4.104 -0.2420  0.0285  0.4044
    1DIPC   D3B26615  11.960  12.114   4.153 -0.0728 -0.3457 -0.2509
    1DIPC   C4B26616  11.811  11.752   3.921 -0.1631  0.4248  0.1084
    1DIPC   NC326617   6.242   6.158   2.682 -0.0839  0.0407 -0.1066
    1DIPC   PO426618   5.902   6.246   3.007  0.1547 -0.0475 -0.1574
    1DIPC   GL126619   5.889   6.331   3.458  0.2618  0.0362  0.0119
    1DIPC   GL226620   5.505   6.378   3.415 -0.2148 -0.0880 -0.0476
    1DIPC   C1A26621   5.830   6.697   3.836 -0.1377 -0.1379  0.2866
    1DIPC   D2A26622   5.887   7.112   3.665  0.0896  0.0127  0.1002
    1DIPC   D3A26623   6.341   7.176   3.628  0.0374 -0.0620  0.0813
    1DIPC   C4A26624   6.625   7.205   3.966 -0.1192  0.0880 -0.1479
    1DIPC   C1B26625   5.399   6.474   3.984 -0.2014  0.1267  0.1409
    1DIPC   D2B26626   5.129   6.613   4.416  0.0115 -0.1530 -0.1436
    1DIPC   D3B26627   4.691   6.694   4.237  0.0828 -0.1211 -0.1085
    1DIPC   C4B26628   4.465   6.703   3.863 -0.2597 -0.0942  0.2535
    1DIPC   NC326629  27.127  21.821   3.061  0.1863  0.0890  0.1780
    1DIPC   PO426630  26.971  22.279   3.009 -0.0848 -0.0271 -0.1657
    1DIPC   GL126631  27.437  22.291   3.197 -0.3369 -0.2144 -0.1213
    1DIPC   GL226632  27.503  22.007   3.367  0.1885  0.2549 -0.1021
    1DIPC   C1A26633  27.565  22.545   3.560 -0.3100  0.1951  0.1222
    1DIPC   D2A26634  27.844  22.795   3.839 -0.1407 -0.6644  0.1009
    1DIPC   D3A26635  27.554  22.517   4.069 -0.1082  0.1978 -0.0605
    1DIPC   C4A26636  27.389  22.585   4.547 -0.0529 -0.0550 -0.0798
    1DIPC   C1B26637  27.698  21.855   3.752  0.1449  0.2270 -0.0817
    1DIPC   D2B26638  27.587  21.604   4.231  0.0421  0.0009 -0.0119
    1DIPC   D3B26639  27.913  21.348   4.424  0.1249 -0.1627  0.0287
    1DIPC   C4B26640  27.772  21.084   4.837  0.2755  0.2289 -0.1578
    1DIPC   NC326641   4.344  26.156   1.787 -0.0563  0.4920 -0.5331
    1DIPC   PO426642   4.650  25.888   1.964 -0.1695 -0.1362 -0.1629
    1DIPC   GL126643   4.804  25.735   2.342 -0.0590 -0.2509 -0.1783
    1DIPC   GL226644   4.661  26.032   2.471  0.0539 -0.0248  0.1108
    1DIPC   C1A26645   4.770  25.670   2.761 -0.1500  0.2476 -0.2387
    1DIPC   D2A26646   4.585  25.333   2.962  0.1582  0.1719 -0.0579
    1DIPC   D3A26647   4.994  25.221   3.029  0.4028 -0.3076  0.0564
    1DIPC   C4A26648   5.217  25.296   3.425  0.0024  0.0623  0.1632
    1DIPC   C1B26649   4.530  26.175   2.887 -0.2947 -0.1059 -0.1013
    1DIPC   D2B26650   4.395  25.901   3.255 -0.0014 -0.0341 -0.0294
    1DIPC   D3B26651   4.494  25.827   3.710  0.0244 -0.1994 -0.0214
    1DIPC   C4B26652   4.525  25.565   3.987 -0.1308 -0.0256  0.0641
    1DIPC   NC326653  14.349   2.529   4.011  0.0021  0.3477  0.2460
    1DIPC   PO426654  14.511   2.129   4.062 -0.0946 -0.1818  0.0813
    1DIPC   GL126655  14.349   2.113   4.453  0.1634 -0.3169  0.0412
    1DIPC   GL226656  14.145   1.922   4.480  0.1396  0.2031  0.2309
    1DIPC   C1A26657  14.469   2.038   4.868  0.1105 -0.1854  0.2617
    1DIPC   D2A26658  14.334   2.037   5.290 -0.2334  0.2516 -0.1062
    1DIPC   D3A26659  14.566   2.314   5.555  0.2879 -0.5103  0.1712
    1DIPC   C4A26660  14.365   2.332   5.919  0.1910  0.1116 -0.0322
    1DIPC   C1B26661  14.093   1.749   4.855 -0.1034 -0.1791 -0.0232
    1DIPC   D2B26662  13.713   1.585   4.817  0.3479 -0.2925 -0.0543
    1DIPC   D3B26663  13.570   1.278   5.179  0.0334 -0.0543  0.1334
    1DIPC   C4B26664  13.339   1.625   5.538  0.2176 -0.0078  0.1371
    1DIPC   NC326665  13.081  15.992   2.093  0.0427 -0.2007  0.2507
    1DIPC   PO426666  13.153  16.378   2.337 -0.0014 -0.1889  0.3752
    1DIPC   GL126667  13.154  16.363   2.787 -0.1990 -0.2598  0.0555
    1DIPC   GL226668  13.199  16.711   2.806 -0.1995  0.0672  0.0176
    1DIPC   C1A26669  13.002  16.284   3.198  0.2544 -0.1255 -0.0773
    1DIPC   D2A26670  13.005  16.424   3.632  0.2214 -0.0419  0.2173
    1DIPC   D3A26671  13.208  16.335   3.965 -0.3675 -0.0036  0.1996
    1DIPC   C4A26672  13.355  16.359   4.254 -0.2562  0.0466  0.0473
    1DIPC   C1B26673  13.576  16.967   2.923 -0.0574 -0.3260  0.1654
    1DIPC   D2B26674  13.804  17.098   3.207  0.1178  0.1112  0.2808
    1DIPC   D3B26675  13.554  16.957   3.482 -0.0857 -0.0514 -0.0607
    1DIPC   C4B26676  13.302  17.215   3.653 -0.0313  0.2392 -0.3131
    1DIPC   NC326677   7.587  29.786   2.808 -0.1810  0.2776  0.2631
    1DIPC   PO426678   7.685   0.206   3.135  0.3506  0.3117  0.4832
    1DIPC   GL126679   7.425   0.153   3.541 -0.1737  0.1274  0.0013
    1DIPC   GL226680   7.290   0.366   3.579  0.1698 -0.3550 -0.0910
    1DIPC   C1A26681   7.058   0.012   3.821  0.1156  0.1713 -0.3489
    1DIPC   D2A26682   7.185  29.659   4.195  0.1125  0.2768 -0.2649
    1DIPC   D3A26683   6.864  29.622   4.453  0.0711 -0.1955 -0.1428
    1DIPC   C4A26684   6.474  29.366   4.397  0.0160 -0.2908 -0.0711
    1DIPC   C1B26685   7.194   0.759   3.808  0.1263  0.0322 -0.0453
    1DIPC   D2B26686   6.874   0.768   4.163  0.0549  0.1865  0.2421
    1DIPC   D3B26687   7.024   1.208   4.290 -0.3204  0.0510 -0.0851
    1DIPC   C4B26688   7.305   1.384   4.490 -0.1020 -0.1741  0.1161
    1DIPC   NC326689   4.824   6.683   2.924  0.3787 -0.0454  0.0752
    1DIPC   PO426690   4.604   6.993   3.100 -0.0797 -0.1408 -0.0770
    1DIPC   GL126691   4.785   6.851   3.483  0.0218 -0.1110 -0.2075
    1DIPC   GL226692   4.838   7.039   3.784  0.1776 -0.0666 -0.1864
    1DIPC   C1A26693   4.896   6.506   3.860  0.0733 -0.1283 -0.2264
    1DIPC   D2A26694   5.011   6.061   3.990  0.1369 -0.0877 -0.3956
    1DIPC   D3A26695   5.050   5.661   4.020 -0.0834 -0.0778  0.0286
    1DIPC   C4A26696   5.183   5.665   3.545  0.0768 -0.0371  0.0827
    1DIPC   C1B26697   5.170   6.970   4.086 -0.0061 -0.0269  0.1078
    1DIPC   D2B26698   5.524   6.872   4.215 -0.1740 -0.1540  0.0182
    1DIPC   D3B26699   5.515   6.970   4.515  0.3553  0.0351 -0.1585
    1DIPC   C4B26700   5.822   6.971   4.773  0.4868  0.0865 -0.3363
    1DIPC   NC326701   6.596  16.574   2.382  0.3811 -0.3697 -0.0582
    1DIPC   PO426702   6.904  16.936   2.353  0.1202 -0.3001  0.0572
    1DIPC   GL126703   6.735  17.124   2.824 -0.1545  0.2008  0.0253
    1DIPC   GL226704   6.448  17.246   2.902  0.2103  0.0866  0.0907
    1DIPC   C1A26705   6.806  17.197   3.341 -0.0434  0.0322  0.0571
    1DIPC   D2A26706   6.912  17.501   3.535 -0.0422  0.0080 -0.0357
    1DIPC   D3A26707   6.666  17.704   3.875  0.0352 -0.1290 -0.2174
    1DIPC   C4A26708   6.271  17.896   4.127  0.0202 -0.4336 -0.3256
    1DIPC   C1B26709   6.625  17.617   3.163  0.1143 -0.0141 -0.2775
    1DIPC   D2B26710   6.393  17.888   3.451  0.0211 -0.1382 -0.0984
    1DIPC   D3B26711   6.543  18.256   3.789 -0.1606 -0.0855  0.0445
    1DIPC   C4B26712   6.323  18.382   4.283 -0.0052 -0.2267  0.0398
    1DIPC   NC326713  22.786   3.928   3.653  0.2760  0.1047  0.1439
    1DIPC   PO426714  22.641   4.361   3.668 -0.1236  0.0133 -0.1362
    1DIPC   GL126715  22.760   4.281   4.047 -0.1694  0.0261  0.2043
    1DIPC   GL226716  22.551   4.067   4.119 -0.1800 -0.3556 -0.2848
    1DIPC   C1A26717  23.041   4.095   4.267  0.4068  0.0247  0.1598
    1DIPC   D2A26718  23.097   3.853   4.600 -0.2575  0.1435  0.1239
    1DIPC   D3A26719  22.934   3.362   4.617  0.0437 -0.3522  0.0991
    1DIPC   C4A26720  22.603   3.163   4.873  0.0331 -0.0835  0.0207
    1DIPC   C1B26721  22.746   4.165   4.660  0.1358 -0.0022  0.1343
    1DIPC   D2B26722  22.837   4.252   5.019 -0.2175 -0.1719 -0.3076
    1DIPC   D3B26723  23.193   4.227   4.949 -0.1000  0.1785  0.2331
    1DIPC   C4B26724  23.428   4.086   5.371 -0.0232 -0.1229  0.2717
    1DIPC   NC326725  11.989  22.594   1.385  0.1673 -0.2841 -0.0291
    1DIPC   PO426726  12.118  22.933   1.878 -0.0969  0.0937 -0.0526
    1DIPC   GL126727  12.244  22.656   2.251  0.0758  0.0294 -0.1638
    1DIPC   GL226728  12.248  22.326   2.333  0.0823  0.1726 -0.1889
    1DIPC   C1A26729  12.475  22.664   2.709  0.0820 -0.2658  0.2415
    1DIPC   D2A26730  12.432  22.542   3.173 -0.0902  0.0986  0.0507
    1DIPC   D3A26731  11.997  22.570   3.210 -0.0398 -0.2907 -0.3848
    1DIPC   C4A26732  11.879  22.362   3.632  0.4129 -0.1184 -0.0198
    1DIPC   C1B26733  12.372  22.170   2.669  0.0382  0.0217 -0.0058
    1DIPC   D2B26734  12.464  22.083   3.077  0.0264 -0.0457 -0.1021
    1DIPC   D3B26735  12.858  21.824   2.983 -0.1645 -0.3188 -0.0097
    1DIPC   C4B26736  13.298  22.028   2.840 -0.0307 -0.2262 -0.0197
    1DIPC   NC326737  24.614  27.833   2.919 -0.0398  0.0258  0.3743
    1DIPC   PO426738  24.322  28.079   3.236  0.2399  0.1595  0.2651
    1DIPC   GL126739  24.740  28.266   3.402 -0.1297 -0.4337  0.3038
    1DIPC   GL226740  24.957  28.044   3.444  0.2055  0.1651  0.1183
    1DIPC   C1A26741  24.864  28.476   3.761 -0.1896 -0.1856 -0.2137
    1DIPC   D2A26742  25.055  28.504   4.187 -0.1319 -0.4164 -0.0855
    1DIPC   D3A26743  24.838  28.351   4.544 -0.1170 -0.2066 -0.3314
    1DIPC   C4A26744  25.176  28.237   4.822 -0.0486 -0.1933 -0.3327
    1DIPC   C1B26745  24.730  27.921   3.814 -0.0702  0.4355 -0.0532
    1DIPC   D2B26746  24.853  27.938   4.294 -0.1692 -0.0043  0.0357
    1DIPC   D3B26747  25.089  27.631   4.078 -0.2990 -0.3082 -0.0823
    1DIPC   C4B26748  24.848  27.450   3.717 -0.1981 -0.2698 -0.0984
    1DIPC   NC326749   1.446  19.625   2.482  0.0129  0.0936 -0.1317
    1DIPC   PO426750   1.390  19.158   2.494  0.2907 -0.0531  0.0544
    1DIPC   GL126751   1.477  19.012   2.910  0.0582  0.1150  0.1597
    1DIPC   GL226752   1.343  18.844   3.247 -0.0768 -0.2361 -0.1130
    1DIPC   C1A26753   1.469  19.318   3.341  0.0688  0.5242 -0.0838
    1DIPC   D2A26754   1.363  19.588   3.757 -0.1880  0.2780  0.2283
    1DIPC   D3A26755   1.312  19.675   4.064  0.0791  0.1532 -0.0531
    1DIPC   C4A26756   1.292  19.562   4.540  0.3501  0.0365 -0.2549
    1DIPC   C1B26757   1.762  18.915   3.327  0.3191  0.0228  0.2150
    1DIPC   D2B26758   1.842  19.241   3.642  0.2748  0.6714 -0.1181
    1DIPC   D3B26759   1.707  19.247   4.085  0.1705  0.0282 -0.0213
    1DIPC   C4B26760   1.769  19.505   4.388 -0.1345  0.0099  0.1922
    1DIPC   NC326761  10.986  15.578   2.159 -0.0107 -0.2127 -0.1159
    1DIPC   PO426762  10.592  15.770   2.384 -0.0225  0.0323  0.0076
    1DIPC   GL126763  10.572  15.663   2.870 -0.1151 -0.4580  0.3899
    1DIPC   GL226764  10.398  15.818   3.111 -0.3524  0.1575  0.2654
    1DIPC   C1A26765  10.665  15.430   3.215 -0.0982  0.1983  0.2170
    1DIPC   D2A26766  10.848  15.057   3.365  0.0330 -0.1519 -0.0836
    1DIPC   D3A26767  10.684  15.149   3.761  0.0954 -0.2882 -0.0495
    1DIPC   C4A26768  10.381  15.126   4.088  0.0337  0.4925  0.0300
    1DIPC   C1B26769  10.632  16.184   2.977  0.0253 -0.2308  0.0672
    1DIPC   D2B26770  10.882  16.657   3.039  0.3637  0.2382 -0.0096
    1DIPC   D3B26771  10.829  16.623   3.543  0.0104  0.2214  0.1017
    1DIPC   C4B26772  10.538  16.458   3.674  0.1408 -0.0021  0.3381
    1DIPC   NC326773  21.635   8.433   3.189  0.0892  0.0386  0.0127
    1DIPC   PO426774  22.010   8.601   3.062  0.2777 -0.0216  0.1931
    1DIPC   GL126775  22.084   8.693   3.379 -0.1635  0.3345 -0.0428
    1DIPC   GL226776  21.763   8.783   3.557  0.3202 -0.0308  0.0066
    1DIPC   C1A26777  22.285   8.595   3.700 -0.0953  0.4364 -0.0668
    1DIPC   D2A26778  22.347   8.233   3.961  0.1062  0.3249 -0.0373
    1DIPC   D3A26779  22.431   8.443   4.316  0.1449 -0.2717  0.0411
    1DIPC   C4A26780  22.527   8.407   4.790  0.0222  0.2388 -0.2071
    1DIPC   C1B26781  21.752   8.757   3.963 -0.0229 -0.1408 -0.3180
    1DIPC   D2B26782  21.993   8.805   4.292 -0.2958 -0.2960 -0.0056
    1DIPC   D3B26783  21.923   9.071   4.708  0.0196 -0.0768 -0.0939
    1DIPC   C4B26784  21.958   9.149   5.181  0.0868  0.0694  0.0166
    1DIPC   NC326785  11.935  18.095   2.422 -0.1222  0.0956  0.1930
    1DIPC   PO426786  11.574  17.928   2.450  0.0210 -0.0095  0.3377
    1DIPC   GL126787  11.490  18.152   2.793 -0.1729  0.3000  0.0585
    1DIPC   GL226788  11.202  18.022   2.945 -0.1331  0.0618  0.2903
    1DIPC   C1A26789  11.690  18.395   3.148  0.2564 -0.0659  0.2129
    1DIPC   D2A26790  12.109  18.377   3.339  0.2008 -0.4011 -0.1294
    1DIPC   D3A26791  12.345  18.654   3.663  0.0680  0.1671  0.3114
    1DIPC   C4A26792  12.343  19.100   3.686 -0.3639 -0.3183  0.0795
    1DIPC   C1B26793  10.985  18.252   3.290  0.0391 -0.3243  0.0310
    1DIPC   D2B26794  10.990  18.314   3.782 -0.3014  0.0912  0.0812
    1DIPC   D3B26795  10.811  18.597   4.015 -0.1630 -0.2329  0.0956
    1DIPC   C4B26796  10.585  18.374   4.344  0.0280  0.0887 -0.3260
    1DIPC   NC326797  10.155   1.227   3.018  0.1982  0.0691  0.1140
    1DIPC   PO426798   9.861   1.057   3.197 -0.0018  0.0412  0.1140
    1DIPC   GL126799   9.826   0.794   3.574 -0.0409  0.3283 -0.1695
    1DIPC   GL226800   9.918   0.894   3.854  0.3213  0.3414 -0.2818
    1DIPC   C1A26801   9.601   0.423   3.817  0.2540 -0.2298  0.1419
    1DIPC   D2A26802   9.298   0.231   4.129 -0.4442  0.0327 -0.1160
    1DIPC   D3A26803   9.690   0.033   4.115  0.3612 -0.1696 -0.0098
    1DIPC   C4A26804   9.741  29.694   3.846  0.0637 -0.0451  0.0533
    1DIPC   C1B26805  10.016   0.847   4.238 -0.0055 -0.2159  0.1665
    1DIPC   D2B26806  10.044   0.821   4.684 -0.0938  0.1057  0.5054
    1DIPC   D3B26807   9.956   0.360   4.852 -0.1316 -0.1678  0.0042
    1DIPC   C4B26808  10.246  29.849   4.863 -0.1270 -0.3169 -0.0815
    1DIPC   NC326809   5.943  27.372   2.013 -0.1814  0.0484 -0.2172
    1DIPC   PO426810   5.980  27.781   2.196 -0.0079  0.0643  0.2461
    1DIPC   GL126811   5.788  27.876   2.487  0.3626 -0.3575 -0.4155
    1DIPC   GL226812   5.708  27.635   2.626 -0.1621 -0.2069 -0.3734
    1DIPC   C1A26813   5.978  28.013   2.957  0.3848 -0.1715 -0.1070
    1DIPC   D2A26814   6.001  28.127   3.426 -0.3320  0.3127  0.0935
    1DIPC   D3A26815   5.996  28.201   3.940  0.3973 -0.0624 -0.1103
    1DIPC   C4A26816   5.696  27.974   4.179  0.2972  0.2780  0.0893
    1DIPC   C1B26817   5.394  27.444   2.831  0.0150 -0.4169  0.0547
    1DIPC   D2B26818   5.029  27.738   3.055  0.2301 -0.1792 -0.2287
    1DIPC   D3B26819   5.422  27.941   2.935 -0.1807 -0.1696  0.1715
    1DIPC   C4B26820   5.568  27.960   3.250 -0.1028  0.1501 -0.2404
    1DIPC   NC326821  29.151  24.775   2.502 -0.2187  0.0379  0.0953
    1DIPC   PO426822  29.575  25.000   2.638 -0.0555  0.0093 -0.0517
    1DIPC   GL126823  29.811  24.886   3.088  0.1025  0.2090  0.1040
    1DIPC   GL226824   0.023  24.573   3.224  0.2063  0.0002 -0.1746
    1DIPC   C1A26825  29.857  25.096   3.456  0.0797 -0.0485 -0.1263
    1DIPC   D2A26826  29.647  25.287   3.795  0.0137 -0.0144 -0.1140
    1DIPC   D3A26827   0.099  25.346   4.100 -0.1181 -0.2888 -0.2255
    1DIPC   C4A26828   0.349  25.667   4.348  0.1551  0.1057  0.0015
    1DIPC   C1B26829   0.396  24.728   3.224 -0.1195 -0.2686  0.1883
    1DIPC   D2B26830   0.776  24.801   3.119 -0.3893 -0.2948 -0.0055
    1DIPC   D3B26831   0.772  24.755   3.596  0.1955  0.0319 -0.0672
    1DIPC   C4B26832   0.898  24.801   3.943  0.0228  0.0547 -0.1151
    1DIPC   NC326833   9.001  21.209   2.472  0.1190  0.1448  0.4539
    1DIPC   PO426834   8.669  20.926   2.518 -0.0092  0.3257 -0.1711
    1DIPC   GL126835   8.489  20.993   2.893 -0.0404  0.2655 -0.0799
    1DIPC   GL226836   8.130  21.077   2.911 -0.1873  0.1718  0.3615
    1DIPC   C1A26837   8.480  20.975   3.390  0.2640 -0.1443  0.1101
    1DIPC   D2A26838   8.430  20.576   3.625  0.2528  0.0415  0.3633
    1DIPC   D3A26839   8.540  20.523   4.003  0.0914  0.1580  0.1914
    1DIPC   C4A26840   8.311  20.372   4.413 -0.0644 -0.1947  0.5798
    1DIPC   C1B26841   8.114  21.443   3.275  0.2465 -0.2460 -0.1563
    1DIPC   D2B26842   8.194  21.774   3.650  0.1914  0.0107  0.1044
    1DIPC   D3B26843   7.969  21.993   3.396  0.2228  0.1335 -0.1608
    1DIPC   C4B26844   8.022  22.150   3.020 -0.1598 -0.1037  0.2001
    1DIPC   NC326845  10.647  13.635   2.373 -0.2043 -0.3344 -0.1267
    1DIPC   PO426846  10.623  14.061   2.221 -0.3624  0.1749 -0.0370
    1DIPC   GL126847  10.411  14.003   2.600  0.0946 -0.0244  0.0551
    1DIPC   GL226848   9.969  14.000   2.689  0.1724 -0.0675 -0.0806
    1DIPC   C1A26849  10.461  14.062   3.078  0.0357 -0.1955  0.1376
    1DIPC   D2A26850  10.254  14.024   3.429 -0.0285 -0.0045 -0.0001
    1DIPC   D3A26851  10.346  14.420   3.343 -0.4017 -0.0144 -0.4187
    1DIPC   C4A26852  10.753  14.462   3.258  0.2104 -0.0803 -0.0592
    1DIPC   C1B26853   9.896  14.357   2.998  0.1580 -0.1861  0.3664
    1DIPC   D2B26854  10.087  14.667   3.017 -0.0175 -0.1396 -0.0940
    1DIPC   D3B26855  10.496  14.510   2.783 -0.1459  0.0197  0.2708
    1DIPC   C4B26856  10.915  14.278   2.853  0.0045 -0.2445 -0.0520
    1DIPC   NC326857   5.587  10.585   2.126  0.4073  0.1434  0.0048
    1DIPC   PO426858   5.493  10.477   2.532  0.1195 -0.2825  0.0092
    1DIPC   GL126859   5.463  10.221   2.891 -0.1539 -0.2033  0.2152
    1DIPC   GL226860   5.373  10.429   3.174  0.0849 -0.0739  0.2127
    1DIPC   C1A26861   5.617  10.001   3.149 -0.0030 -0.1881  0.0111
    1DIPC   D2A26862   5.543   9.865   3.576  0.1814  0.1830  0.0797
    1DIPC   D3A26863   5.820  10.040   3.811  0.0086 -0.0457  0.0337
    1DIPC   C4A26864   5.874  10.229   4.199 -0.1963 -0.3013 -0.2375
    1DIPC   C1B26865   5.763  10.541   3.345  0.0020 -0.1633 -0.0804
    1DIPC   D2B26866   5.988  10.845   3.428  0.1890  0.0586 -0.0778
    1DIPC   D3B26867   5.813  11.294   3.424 -0.1076 -0.0401  0.0389
    1DIPC   C4B26868   5.544  11.406   3.710 -0.0184 -0.2506  0.3332
    1DIPC   NC326869  26.693   4.875   2.736 -0.1646  0.0046  0.0391
    1DIPC   PO426870  26.720   4.598   3.014  0.1659 -0.1717 -0.0617
    1DIPC   GL126871  26.710   4.731   3.397  0.2142 -0.2095  0.0884
    1DIPC   GL226872  26.732   4.402   3.459  0.0124 -0.1840  0.1781
    1DIPC   C1A26873  26.737   4.831   3.832 -0.5001  0.0925  0.1453
    1DIPC   D2A26874  26.568   5.106   4.149 -0.0128  0.3295 -0.1683
    1DIPC   D3A26875  26.542   4.728   4.475 -0.1124  0.0461  0.0039
    1DIPC   C4A26876  26.874   4.763   4.773 -0.2713  0.0564  0.0309
    1DIPC   C1B26877  26.749   4.232   3.763  0.0287  0.1718  0.1080
    1DIPC   D2B26878  26.681   4.007   4.157 -0.1501  0.2879  0.1028
    1DIPC   D3B26879  26.686   4.125   4.509 -0.2384 -0.0881 -0.3428
    1DIPC   C4B26880  26.542   3.972   4.891 -0.1909 -0.0386 -0.2510
    1DIPC   NC326881  15.893   2.292   4.106  0.1487 -0.1528  0.2269
    1DIPC   PO426882  16.251   2.538   4.304  0.0738  0.0204 -0.0415
    1DIPC   GL126883  16.204   2.855   4.618  0.0568  0.0989  0.2439
    1DIPC   GL226884  15.870   2.848   4.874  0.2134  0.1299  0.0705
    1DIPC   C1A26885  16.235   3.237   4.898 -0.2945  0.0364  0.0933
    1DIPC   D2A26886  16.115   3.435   5.242 -0.0126  0.2917 -0.2522
    1DIPC   D3A26887  16.290   3.108   5.501  0.3601 -0.0547  0.0179
    1DIPC   C4A26888  16.654   3.195   5.824  0.0198 -0.0359  0.0757
    1DIPC   C1B26889  15.810   2.945   5.361 -0.0600  0.0351  0.1042
    1DIPC   D2B26890  15.652   2.696   5.814 -0.0729  0.3133 -0.0117
    1DIPC   D3B26891  16.065   2.727   5.841  0.2774  0.3184  0.0143
    1DIPC   C4B26892  16.230   2.358   6.066  0.0168 -0.0474  0.0515
    1DIPC   NC326893  16.166  18.136   2.057  0.1802  0.2459  0.0233
    1DIPC   PO426894  16.550  18.074   2.270  0.1050 -0.0353 -0.1594
    1DIPC   GL126895  16.429  17.910   2.625 -0.2167  0.1815 -0.0642
    1DIPC   GL226896  16.582  17.634   2.630  0.1368  0.0172  0.0260
    1DIPC   C1A26897  16.230  17.688   3.019  0.0773  0.0483  0.1651
    1DIPC   D2A26898  16.390  17.494   3.377 -0.0958 -0.0397  0.0752
    1DIPC   D3A26899  16.029  17.210   3.378 -0.1688  0.0745  0.1463
    1DIPC   C4A26900  16.030  16.723   3.245 -0.1016  0.0753  0.0635
    1DIPC   C1B26901  16.669  17.369   2.806 -0.1598  0.0302  0.0132
    1DIPC   D2B26902  16.767  17.159   3.140  0.2740 -0.2638 -0.1143
    1DIPC   D3B26903  16.498  16.962   3.357 -0.0113 -0.1988  0.3769
    1DIPC   C4B26904  16.326  17.120   3.782 -0.1727 -0.2045 -0.4395
    1DIPC   NC326905  24.837   4.686   3.200  0.1076  0.0908 -0.1108
    1DIPC   PO426906  24.942   4.273   3.267  0.1473  0.0000  0.2662
    1DIPC   GL126907  24.878   4.357   3.756  0.1065 -0.1500  0.1090
    1DIPC   GL226908  25.142   4.474   4.039  0.1313 -0.0093 -0.1510
    1DIPC   C1A26909  24.892   4.001   4.028  0.0680  0.3301 -0.2493
    1DIPC   D2A26910  24.757   3.996   4.404 -0.1365  0.0156  0.1719
    1DIPC   D3A26911  24.465   3.869   4.749 -0.2368  0.0171 -0.1867
    1DIPC   C4A26912  24.079   4.097   4.937  0.0190 -0.0294 -0.0032
    1DIPC   C1B26913  25.235   4.202   4.402 -0.1546 -0.2151 -0.1775
    1DIPC   D2B26914  25.117   4.400   4.779 -0.1651  0.1897 -0.3003
    1DIPC   D3B26915  25.254   4.786   4.521  0.0299 -0.0020 -0.1940
    1DIPC   C4B26916  25.102   5.128   4.578  0.0776 -0.1032 -0.0599
    1DIPC   NC326917  28.236  28.126   2.506  0.2080  0.3399 -0.6046
    1DIPC   PO426918  28.688  28.149   2.682  0.0780  0.0903 -0.0029
    1DIPC   GL126919  28.748  27.886   3.069 -0.0141  0.0711 -0.0293
    1DIPC   GL226920  28.441  27.663   3.108  0.1696  0.1136  0.2488
    1DIPC   C1A26921  28.940  27.576   3.337 -0.0995 -0.0877  0.4525
    1DIPC   D2A26922  28.930  27.615   3.780 -0.1365  0.3410 -0.1091
    1DIPC   D3A26923  29.250  27.874   3.624 -0.3608  0.0842 -0.2480
    1DIPC   C4A26924  29.198  28.008   3.200 -0.1344  0.1115 -0.0510
    1DIPC   C1B26925  28.510  27.563   3.522 -0.2440 -0.0337  0.0580
    1DIPC   D2B26926  28.531  27.390   3.933  0.3025 -0.0530 -0.0623
    1DIPC   D3B26927  28.139  27.532   3.919  0.5507 -0.2023  0.0886
    1DIPC   C4B26928  27.888  27.240   3.950 -0.1261  0.0973 -0.3810
    1DIPC   NC326929  17.083  17.926   2.226 -0.1794  0.2701  0.1147
    1DIPC   PO426930  17.206  17.596   2.411 -0.0147 -0.0728  0.1904
    1DIPC   GL126931  16.977  17.869   2.787 -0.1740 -0.0253  0.1175
    1DIPC   GL226932  16.937  18.154   2.640 -0.0392 -0.2691 -0.1163
    1DIPC   C1A26933  16.726  17.786   3.084 -0.1852  0.0633  0.0036
    1DIPC   D2A26934  16.774  17.755   3.614  0.2013 -0.0934 -0.1111
    1DIPC   D3A26935  16.406  17.607   3.872  0.1816 -0.2522  0.2336
    1DIPC   C4A26936  16.027  17.559   3.729  0.1669 -0.1887 -0.0558
    1DIPC   C1B26937  17.002  18.283   3.095  0.2244  0.0805 -0.1534
    1DIPC   D2B26938  17.113  18.460   3.571  0.0818  0.1830 -0.1245
    1DIPC   D3B26939  16.925  18.186   3.856  0.3113  0.1565 -0.1181
    1DIPC   C4B26940  16.482  18.228   3.933  0.1145  0.0366  0.0529
    1DIPC   NC326941  24.267  23.196   3.137  0.2111 -0.0694 -0.1498
    1DIPC   PO426942  24.439  22.860   3.427 -0.0194  0.2451 -0.1179
    1DIPC   GL126943  24.610  22.744   3.814  0.1688  0.0054 -0.2152
    1DIPC   GL226944  24.811  22.415   3.761 -0.2424 -0.4369  0.1530
    1DIPC   C1A26945  24.784  22.699   4.216  0.0919  0.0801 -0.0396
    1DIPC   D2A26946  24.767  22.781   4.717 -0.1248 -0.1385 -0.0628
    1DIPC   D3A26947  24.529  22.460   4.919 -0.2591 -0.0637 -0.2302
    1DIPC   C4A26948  24.619  22.010   5.155 -0.0784  0.2502 -0.0882
    1DIPC   C1B26949  25.279  22.438   4.005 -0.1350 -0.5392  0.2633
    1DIPC   D2B26950  25.408  22.429   4.370 -0.0303 -0.2336 -0.0876
    1DIPC   D3B26951  25.188  22.745   4.479 -0.1191  0.1273 -0.0072
    1DIPC   C4B26952  25.243  23.003   4.764  0.1161 -0.4806 -0.1108
    1DIPC   NC326953  22.543  24.409   2.789  0.0593 -0.1089 -0.0492
    1DIPC   PO426954  22.548  24.022   2.994  0.1532  0.1586 -0.1130
    1DIPC   GL126955  22.365  23.894   3.375  0.1344  0.0276  0.1383
    1DIPC   GL226956  22.319  23.550   3.553  0.0557 -0.0633  0.0095
    1DIPC   C1A26957  22.494  23.900   3.832  0.0986  0.0456 -0.1058
    1DIPC   D2A26958  22.799  23.964   4.021 -0.2215  0.0547  0.0112
    1DIPC   D3A26959  22.941  24.299   4.270  0.1831  0.0565 -0.0862
    1DIPC   C4A26960  23.355  24.162   4.258  0.1279  0.0215 -0.2029
    1DIPC   C1B26961  22.359  23.380   3.964  0.0840  0.0065 -0.0256
    1DIPC   D2B26962  22.367  23.361   4.369  0.1461 -0.2819 -0.0212
    1DIPC   D3B26963  22.656  23.021   4.349 -0.3476 -0.0742 -0.1134
    1DIPC   C4B26964  22.615  22.666   4.521 -0.2055 -0.1882 -0.1653
    1DIPC   NC326965  28.419  24.992   2.968  0.0893 -0.1270  0.0182
    1DIPC   PO426966  28.294  24.561   2.954  0.0794 -0.0584 -0.0836
    1DIPC   GL126967  28.368  24.685   3.419 -0.1115  0.2530  0.2944
    1DIPC   GL226968  28.695  24.595   3.411 -0.1706  0.3471 -0.1520
    1DIPC   C1A26969  28.258  24.748   3.816 -0.1662  0.0395  0.0873
    1DIPC   D2A26970  28.322  24.430   4.203 -0.2918 -0.0415  0.3433
    1DIPC   D3A26971  28.296  24.000   4.249 -0.0108 -0.1397  0.0799
    1DIPC   C4A26972  28.627  23.825   4.553 -0.1417  0.0440 -0.1463
    1DIPC   C1B26973  28.716  24.558   3.857 -0.2396  0.1841 -0.1408
    1DIPC   D2B26974  28.690  24.855   4.174 -0.1779 -0.0362  0.0428
    1DIPC   D3B26975  28.652  25.126   3.937  0.1086 -0.0657  0.3591
    1DIPC   C4B26976  28.737  25.220   3.537  0.0411  0.0347  0.0009
    1DIPC   NC326977  18.795  16.130   2.128  0.0828 -0.0433 -0.0758
    1DIPC   PO426978  18.376  16.323   2.059 -0.0726 -0.1159  0.3804
    1DIPC   GL126979  18.152  16.339   2.447 -0.0986  0.0110 -0.1583
    1DIPC   GL226980  18.029  16.045   2.640  0.1136 -0.1726 -0.0230
    1DIPC   C1A26981  17.932  16.464   2.850 -0.0188 -0.2021  0.0977
    1DIPC   D2A26982  17.986  16.424   3.248  0.1955 -0.1101  0.0514
    1DIPC   D3A26983  18.326  16.732   3.346 -0.4877  0.0128  0.0513
    1DIPC   C4A26984  18.156  16.937   3.692 -0.0565  0.0455 -0.1389
    1DIPC   C1B26985  18.198  16.032   3.000 -0.0179  0.1906 -0.0533
    1DIPC   D2B26986  18.521  16.228   3.227 -0.1234  0.1248 -0.1551
    1DIPC   D3B26987  18.409  16.443   2.897  0.1057 -0.0945  0.0998
    1DIPC   C4B26988  18.383  16.836   2.773  0.1493 -0.0494  0.0315
    1DIPC   NC326989  21.693  28.928   3.178  0.0154  0.1820  0.0678
    1DIPC   PO426990  21.974  28.606   3.220 -0.1039  0.0085 -0.1196
    1DIPC   GL126991  22.064  28.765   3.642 -0.1868  0.3191  0.0554
    1DIPC   GL226992  21.922  29.057   3.806 -0.0554 -0.1642 -0.1820
    1DIPC   C1A26993  22.337  28.943   3.987  0.0140  0.1584  0.1125
    1DIPC   D2A26994  22.407  28.753   4.325  0.3076 -0.1614  0.2649
    1DIPC   D3A26995  22.179  28.400   4.031  0.1030 -0.1293 -0.0229
    1DIPC   C4A26996  22.099  27.987   4.155 -0.3086  0.2538  0.1206
    1DIPC   C1B26997  21.785  28.819   4.119  0.1552  0.1487 -0.3138
    1DIPC   D2B26998  21.955  28.745   4.608 -0.0021  0.0934  0.0427
    1DIPC   D3B26999  22.170  28.387   4.586 -0.1227 -0.0532  0.2849
    1DIPC   C4B27000  22.612  28.528   4.686 -0.1142 -0.1224 -0.1181
    1DIPC   NC327001  27.411  25.680   2.737  0.1282 -0.1124 -0.0520
    1DIPC   PO427002  27.308  26.081   2.669 -0.2901  0.0625  0.1259
    1DIPC   GL127003  27.502  26.166   3.050  0.2482 -0.0766  0.2952
    1DIPC   GL227004  27.926  26.210   3.097 -0.1324 -0.0818 -0.0341
    1DIPC   C1A27005  27.378  26.310   3.372 -0.1405  0.2110 -0.0134
    1DIPC   D2A27006  27.002  26.466   3.590  0.0555  0.0648  0.0101
    1DIPC   D3A27007  27.235  26.617   3.967  0.0168  0.0709 -0.2569
    1DIPC   C4A27008  27.513  26.871   4.017  0.2925  0.1993 -0.1030
    1DIPC   C1B27009  27.940  26.191   3.532 -0.0018  0.3002  0.0907
    1DIPC   D2B27010  27.664  26.335   3.894 -0.0088  0.2639 -0.0198
    1DIPC   D3B27011  27.984  26.332   4.193  0.3079 -0.1087 -0.0374
    1DIPC   C4B27012  28.376  26.429   4.082  0.1359  0.2660  0.1248
    1DIPC   NC327013  17.414   0.846   3.798  0.0899  0.1912  0.0189
    1DIPC   PO427014  17.624   0.833   4.120 -0.2989 -0.2151 -0.1758
    1DIPC   GL127015  17.449   0.884   4.456  0.3709 -0.0410  0.0113
    1DIPC   GL227016  17.329   0.611   4.596  0.0843 -0.0619  0.1245
    1DIPC   C1A27017  17.520   1.181   4.800 -0.0251  0.0093  0.3185
    1DIPC   D2A27018  17.682   1.366   5.289 -0.0929 -0.0093  0.1230
    1DIPC   D3A27019  17.509   1.378   5.609  0.2280 -0.0976 -0.0532
    1DIPC   C4A27020  17.270   1.070   5.649  0.0028  0.0196 -0.1069
    1DIPC   C1B27021  17.364   0.371   5.033  0.0340  0.0390 -0.1856
    1DIPC   D2B27022  17.140   0.062   5.255 -0.2214 -0.2183 -0.0635
    1DIPC   D3B27023  17.457  29.560   5.208  0.0445 -0.1240 -0.1754
    1DIPC   C4B27024  17.611  29.235   4.926 -0.1885  0.3293 -0.0850
    1DIPC   NC327025  21.429  20.211   1.866 -0.1812 -0.0353 -0.1653
    1DIPC   PO427026  21.371  19.853   1.736 -0.0566  0.1416  0.0360
    1DIPC   GL127027  21.283  19.778   2.133 -0.0497  0.0628 -0.3082
    1DIPC   GL227028  21.246  19.404   2.195  0.2326  0.0963 -0.0257
    1DIPC   C1A27029  21.414  19.992   2.516 -0.1334  0.2935 -0.2335
    1DIPC   D2A27030  21.316  20.320   2.817 -0.1210 -0.0604 -0.0767
    1DIPC   D3A27031  21.559  20.117   3.078  0.2800 -0.1331 -0.1520
    1DIPC   C4A27032  21.840  19.875   2.875 -0.2457  0.1022 -0.0017
    1DIPC   C1B27033  21.014  19.289   2.499  0.3649 -0.1389  0.2171
    1DIPC   D2B27034  20.695  19.233   2.800  0.0274 -0.0470  0.0396
    1DIPC   D3B27035  20.931  19.264   3.167  0.2522 -0.1964  0.0786
    1DIPC   C4B27036  20.737  19.069   3.496  0.1886  0.1235  0.0714
    1DIPC   NC327037  15.031  18.809   2.205  0.0157  0.0850  0.2503
    1DIPC   PO427038  15.266  19.042   2.341 -0.1337 -0.0347  0.0008
    1DIPC   GL127039  15.589  19.093   2.679 -0.1888  0.1774  0.3215
    1DIPC   GL227040  15.872  18.826   2.549  0.3694  0.1820 -0.2328
    1DIPC   C1A27041  15.431  19.039   3.149 -0.0607 -0.0125  0.0702
    1DIPC   D2A27042  15.455  18.822   3.577  0.0041  0.1373  0.0466
    1DIPC   D3A27043  15.522  19.239   3.683  0.1149 -0.1183 -0.0753
    1DIPC   C4A27044  15.814  19.546   3.851  0.0516  0.1432  0.0009
    1DIPC   C1B27045  15.719  18.675   2.996  0.1284  0.0637  0.0934
    1DIPC   D2B27046  15.673  18.398   3.324 -0.0958 -0.1413  0.1389
    1DIPC   D3B27047  15.420  18.262   3.606 -0.1152  0.1514  0.2831
    1DIPC   C4B27048  15.619  17.968   3.850  0.2108  0.1062  0.1770
    1DIPC   NC327049  10.898   2.421   3.654  0.1709 -0.0928 -0.0247
    1DIPC   PO427050  10.778   2.052   3.838  0.2480  0.2911  0.0963
    1DIPC   GL127051  10.925   1.875   4.326  0.1034  0.1059 -0.4266
    1DIPC   GL227052  11.047   1.605   4.430  0.0262  0.2122 -0.0026
    1DIPC   C1A27053  11.172   2.141   4.622  0.0913 -0.3714  0.1993
    1DIPC   D2A27054  11.257   2.496   5.015 -0.2200  0.0852  0.3611
    1DIPC   D3A27055  11.128   2.371   5.389  0.1150  0.1763 -0.0888
    1DIPC   C4A27056  10.813   2.671   5.651 -0.1853 -0.0214  0.3208
    1DIPC   C1B27057  10.871   1.538   4.822 -0.0749 -0.0683 -0.0391
    1DIPC   D2B27058  10.724   1.882   4.992  0.0479  0.2843  0.3457
    1DIPC   D3B27059  10.674   2.261   4.746 -0.0719 -0.1536 -0.1467
    1DIPC   C4B27060  10.932   2.569   4.516 -0.0438  0.0133 -0.4165
    1DIPC   NC327061  14.196   8.664   2.683 -0.0687 -0.2569 -0.0964
    1DIPC   PO427062  14.126   8.689   3.126  0.0012 -0.2373  0.2341
    1DIPC   GL127063  14.078   8.695   3.604  0.3522  0.2256 -0.1013
    1DIPC   GL227064  14.156   8.459   3.884 -0.2656  0.0147 -0.0181
    1DIPC   C1A27065  13.755   8.732   3.863 -0.0923  0.1511  0.1494
    1DIPC   D2A27066  13.433   8.434   4.002 -0.0114  0.0899  0.1980
    1DIPC   D3A27067  13.255   8.630   4.147  0.3473 -0.1183 -0.2543
    1DIPC   C4A27068  12.902   8.743   4.265 -0.3986 -0.0047 -0.1896
    1DIPC   C1B27069  13.872   8.637   4.302 -0.2864 -0.0152 -0.1283
    1DIPC   D2B27070  13.526   8.393   4.572 -0.4156 -0.0413  0.0762
    1DIPC   D3B27071  13.740   8.063   4.597  0.0795 -0.2184  0.1235
    1DIPC   C4B27072  13.910   7.939   5.014 -0.2550 -0.1155 -0.1818
    1DIPC   NC327073   0.477   6.858   2.802  0.1616  0.2379 -0.1111
    1DIPC   PO427074   0.894   6.687   2.939  0.0167 -0.3321  0.1767
    1DIPC   GL127075   0.537   6.754   3.338  0.0795  0.0694  0.0531
    1DIPC   GL227076   0.585   6.336   3.477 -0.0048 -0.0830  0.1634
    1DIPC   C1A27077   0.391   6.648   3.801 -0.1872 -0.1602  0.3518
    1DIPC   D2A27078   0.206   6.217   3.749 -0.1230  0.1402  0.0049
    1DIPC   D3A27079   0.176   6.458   4.211 -0.0670 -0.0457 -0.1397
    1DIPC   C4A27080  29.721   6.828   4.355  0.0897 -0.0269 -0.1423
    1DIPC   C1B27081   0.839   6.171   3.800  0.2048  0.0048  0.0486
    1DIPC   D2B27082   1.238   6.206   3.829 -0.2177  0.0300 -0.1578
    1DIPC   D3B27083   1.361   6.252   4.269  0.1923 -0.2369 -0.0994
    1DIPC   C4B27084   1.708   5.995   4.236 -0.0344 -0.3956 -0.2376
    1DIPC   NC327085  11.075  10.632   2.003  0.0332 -0.0211 -0.1197
    1DIPC   PO427086  11.094  10.889   2.358 -0.3180 -0.0176 -0.1615
    1DIPC   GL127087  11.207  10.819   2.808  0.0888 -0.1026  0.1601
    1DIPC   GL227088  10.995  10.580   2.975 -0.0909  0.2223  0.1645
    1DIPC   C1A27089  11.297  10.910   3.266  0.1454 -0.0897 -0.1041
    1DIPC   D2A27090  11.615  10.896   3.383 -0.0823 -0.5297  0.0319
    1DIPC   D3A27091  11.516  10.627   3.719  0.0499 -0.1545  0.0117
    1DIPC   C4A27092  11.413  11.025   4.001  0.0600 -0.1034 -0.3285
    1DIPC   C1B27093  10.827  10.607   3.391  0.0526 -0.1554  0.1249
    1DIPC   D2B27094  10.998  10.601   3.888 -0.2365 -0.1448  0.0686
    1DIPC   D3B27095  11.173  10.474   4.219 -0.1073  0.1432  0.0172
    1DIPC   C4B27096  11.454  10.676   4.473  0.0351 -0.2836  0.3353
    1DIPC   NC327097   4.618  11.768   2.107 -0.1469 -0.0816 -0.0052
    1DIPC   PO427098   4.739  11.983   2.462 -0.3030  0.2371 -0.3401
    1DIPC   GL127099   4.929  12.192   2.787  0.0899  0.0544 -0.0666
    1DIPC   GL227100   4.805  12.483   2.929 -0.1300  0.2568 -0.1318
    1DIPC   C1A27101   5.056  12.028   3.312 -0.1351  0.0769  0.0316
    1DIPC   D2A27102   4.957  12.186   3.686 -0.0810  0.0121 -0.1932
    1DIPC   D3A27103   5.359  12.401   3.681 -0.2220 -0.1702  0.0800
    1DIPC   C4A27104   5.687  12.620   3.914  0.0538  0.0728  0.0660
    1DIPC   C1B27105   4.979  12.600   3.420  0.0894 -0.3907  0.1900
    1DIPC   D2B27106   4.887  12.900   3.708  0.0443 -0.0898  0.0477
    1DIPC   D3B27107   4.469  12.978   3.813 -0.2288 -0.5130  0.0824
    1DIPC   C4B27108   4.210  12.916   4.121 -0.0919 -0.0278  0.0140
    1DIPC   NC327109  12.858  17.608   2.439 -0.1122 -0.2034 -0.2063
    1DIPC   PO427110  12.734  17.354   2.782 -0.1707  0.1580  0.0774
    1DIPC   GL127111  12.890  17.631   2.963  0.3613 -0.0215  0.1967
    1DIPC   GL227112  13.037  17.960   2.887 -0.0347 -0.1005  0.1430
    1DIPC   C1A27113  12.949  17.871   3.414  0.0985  0.2359  0.2131
    1DIPC   D2A27114  12.888  17.791   3.844 -0.1236 -0.1156  0.1223
    1DIPC   D3A27115  13.292  17.951   3.948  0.0005 -0.0059 -0.1365
    1DIPC   C4A27116  13.500  18.356   3.879  0.2626 -0.0964  0.0486
    1DIPC   C1B27117  13.066  18.283   3.160  0.1036 -0.1879 -0.0146
    1DIPC   D2B27118  12.928  18.690   2.842 -0.4170  0.0917 -0.2715
    1DIPC   D3B27119  13.081  18.822   3.194  0.4099 -0.1152 -0.0398
    1DIPC   C4B27120  12.907  18.735   3.613 -0.2583  0.0419  0.2580
    1DIPC   NC327121  12.102   6.394   3.282  0.1702 -0.1457  0.2397
    1DIPC   PO427122  12.265   6.722   3.498  0.2042 -0.1453 -0.0603
    1DIPC   GL127123  12.227   6.878   3.942 -0.0538  0.3764 -0.1415
    1DIPC   GL227124  12.566   6.964   4.067 -0.0652 -0.0396 -0.0558
    1DIPC   C1A27125  11.934   7.050   4.180 -0.0894 -0.0667 -0.1228
    1DIPC   D2A27126  11.718   6.754   4.450  0.0571 -0.1535 -0.0392
    1DIPC   D3A27127  11.589   6.463   4.076 -0.0327 -0.0624 -0.1435
    1DIPC   C4A27128  11.255   6.093   4.149 -0.0910  0.0808  0.1231
    1DIPC   C1B27129  12.320   7.054   4.500 -0.2522 -0.1762 -0.0868
    1DIPC   D2B27130  12.168   7.459   4.631 -0.2603  0.0838  0.3006
    1DIPC   D3B27131  12.127   7.601   5.043 -0.0994  0.2638  0.0273
    1DIPC   C4B27132  12.183   7.624   5.462 -0.0434 -0.2596 -0.1950
    1DIPC   NC327133   6.634  26.615   2.333  0.2730 -0.2442  0.1629
    1DIPC   PO427134   6.513  26.990   2.409  0.0912  0.0782  0.0183
    1DIPC   GL127135   6.573  26.785   2.810  0.1661 -0.1023  0.1452
    1DIPC   GL227136   6.423  26.376   2.670  0.2372 -0.1833  0.1922
    1DIPC   C1A27137   6.431  26.654   3.104  0.0423  0.1748 -0.1553
    1DIPC   D2A27138   6.547  26.630   3.536 -0.2190 -0.2187  0.0170
    1DIPC   D3A27139   6.645  26.976   3.743  0.1744 -0.1816 -0.2884
    1DIPC   C4A27140   6.248  27.308   3.844 -0.1171 -0.2460 -0.2340
    1DIPC   C1B27141   6.604  26.195   3.091 -0.0531  0.0905  0.2975
    1DIPC   D2B27142   6.915  26.202   3.449  0.1535  0.1508  0.0864
    1DIPC   D3B27143   6.983  26.638   3.204  0.4770 -0.0238  0.0800
    1DIPC   C4B27144   7.075  27.005   3.442  0.0119 -0.1911 -0.2131
    1DIPC   NC327145   4.618  25.384   2.040 -0.1155  0.3190  0.1608
    1DIPC   PO427146   4.454  24.864   2.135 -0.4677  0.2766  0.4695
    1DIPC   GL127147   4.526  24.820   2.578  0.0014  0.3894 -0.1233
    1DIPC   GL227148   4.873  24.635   2.582  0.1550 -0.3881  0.1176
    1DIPC   C1A27149   4.297  24.776   2.865  0.1405  0.0128  0.1161
    1DIPC   D2A27150   4.139  24.746   3.235  0.0156  0.1222  0.1739
    1DIPC   D3A27151   4.135  24.994   3.633 -0.1990  0.1297 -0.5346
    1DIPC   C4A27152   4.350  25.141   3.929  0.0981 -0.4151  0.0227
    1DIPC   C1B27153   4.821  24.815   2.956  0.0911  0.1741 -0.1038
    1DIPC   D2B27154   4.545  25.006   3.317  0.2590  0.1591  0.0235
    1DIPC   D3B27155   4.461  24.687   3.712  0.0320  0.0947  0.0133
    1DIPC   C4B27156   4.091  24.600   3.897 -0.0737 -0.0573  0.1581
    1DIPC   NC327157   7.501  22.389   2.336  0.0020  0.0555 -0.0373
    1DIPC   PO427158   7.570  21.956   2.347 -0.2982  0.1389  0.4588
    1DIPC   GL127159   7.897  21.788   2.675  0.1143  0.3046  0.1181
    1DIPC   GL227160   7.969  21.523   2.708 -0.0702 -0.1068  0.0115
    1DIPC   C1A27161   8.322  21.717   2.954 -0.0254  0.0387  0.0048
    1DIPC   D2A27162   8.779  21.431   3.013  0.2523 -0.2160 -0.3923
    1DIPC   D3A27163   8.991  21.598   3.321  0.0644  0.1887  0.2038
    1DIPC   C4A27164   9.024  21.297   3.667  0.3859 -0.1606  0.0123
    1DIPC   C1B27165   7.739  21.653   3.089 -0.5100  0.0911  0.0077
    1DIPC   D2B27166   7.554  21.708   3.553  0.1187 -0.1618 -0.0853
    1DIPC   D3B27167   7.266  22.016   3.420  0.0168 -0.0332  0.2763
    1DIPC   C4B27168   6.963  21.898   3.229 -0.1962  0.2381  0.2024
    1DIPC   NC327169  10.028   4.115   3.190 -0.2194  0.0946  0.2015
    1DIPC   PO427170   9.804   4.286   3.587  0.1026 -0.2706 -0.1170
    1DIPC   GL127171   9.813   4.239   4.079 -0.1030 -0.2105 -0.1466
    1DIPC   GL227172   9.503   4.162   4.316  0.0541 -0.3252 -0.3776
    1DIPC   C1A27173   9.788   3.827   4.420  0.3573 -0.0941 -0.5444
    1DIPC   D2A27174   9.398   3.742   4.494  0.2631  0.2196 -0.1635
    1DIPC   D3A27175   9.118   3.839   4.832  0.0710 -0.0276 -0.3827
    1DIPC   C4A27176   9.130   3.798   5.282  0.1264  0.3297 -0.1465
    1DIPC   C1B27177   9.559   4.440   4.517 -0.2653 -0.0598  0.2259
    1DIPC   D2B27178   9.277   4.853   4.579  0.3360 -0.3850 -0.3499
    1DIPC   D3B27179   9.475   4.751   4.911 -0.0981  0.2484 -0.0113
    1DIPC   C4B27180   9.281   4.893   5.353 -0.1688  0.0510 -0.2233
    1DIPC   NC327181   0.273   1.994   3.036  0.1278  0.1211 -0.0453
    1DIPC   PO427182   0.080   2.356   2.826  0.2656 -0.0416  0.0249
    1DIPC   GL127183  29.811   2.300   3.306  0.1895  0.3696 -0.0443
    1DIPC   GL227184  29.738   2.652   3.261 -0.1141 -0.0867 -0.3832
    1DIPC   C1A27185  29.772   2.145   3.720  0.0087 -0.0029  0.1730
    1DIPC   D2A27186   0.100   1.853   3.988  0.0729 -0.0876  0.1281
    1DIPC   D3A27187   0.124   1.984   4.406  0.0610  0.2992  0.2931
    1DIPC   C4A27188   0.292   2.049   4.777  0.2181  0.0607  0.0341
    1DIPC   C1B27189  29.803   3.021   3.586 -0.3268  0.0121 -0.1075
    1DIPC   D2B27190  29.750   3.479   3.539 -0.2809  0.1459 -0.0367
    1DIPC   D3B27191   0.071   3.681   3.951 -0.0452  0.2525 -0.0578
    1DIPC   C4B27192   0.059   4.086   4.161  0.1696  0.0995  0.0614
    1DIPC   NC327193  28.856  22.741   2.792 -0.4750 -0.0833 -0.0160
    1DIPC   PO427194  28.521  22.904   2.680 -0.0147  0.0434 -0.1644
    1DIPC   GL127195  28.659  23.036   3.092 -0.1655  0.2836  0.2223
    1DIPC   GL227196  28.608  22.753   3.311  0.0860 -0.0241 -0.1946
    1DIPC   C1A27197  28.623  23.180   3.636  0.0533  0.0827  0.1663
    1DIPC   D2A27198  28.828  23.129   3.988  0.1607 -0.0568 -0.2650
    1DIPC   D3A27199  28.948  23.004   4.390 -0.4793  0.0271  0.2639
    1DIPC   C4A27200  28.915  22.694   4.694  0.3408  0.1770 -0.3719
    1DIPC   C1B27201  28.470  22.627   3.761  0.1765  0.0148  0.0878
    1DIPC   D2B27202  28.741  22.541   4.253 -0.3077  0.0620  0.3575
    1DIPC   D3B27203  28.750  22.039   4.333  0.3455  0.0221  0.2014
    1DIPC   C4B27204  28.368  21.795   4.470 -0.0688  0.0373 -0.1904
    1DIPC   NC327205  24.467   1.329   3.653 -0.2470 -0.1416  0.0168
    1DIPC   PO427206  24.862   1.255   3.481  0.3988  0.0473 -0.2150
    1DIPC   GL127207  24.952   1.561   3.760  0.2368  0.0522  0.5004
    1DIPC   GL227208  24.821   1.497   3.994 -0.2382  0.0131 -0.3465
    1DIPC   C1A27209  25.284   1.515   4.094 -0.2577  0.0453  0.1425
    1DIPC   D2A27210  25.421   1.641   4.546 -0.0129  0.1241 -0.2395
    1DIPC   D3A27211  25.631   1.833   4.853 -0.2209 -0.2391 -0.2029
    1DIPC   C4A27212  25.659   1.542   5.207  0.0174 -0.1327 -0.2295
    1DIPC   C1B27213  24.426   1.700   4.343  0.0137  0.2000  0.0706
    1DIPC   D2B27214  24.208   1.990   4.590  0.1678 -0.2010  0.1458
    1DIPC   D3B27215  24.089   1.789   4.935 -0.1717  0.2110  0.0504
    1DIPC   C4B27216  23.715   1.710   5.146  0.0732 -0.1625  0.2842
    1DIPC   NC327217   4.069  15.363   3.120  0.2885 -0.0221 -0.3366
    1DIPC   PO427218   4.306  15.028   2.978 -0.1786  0.1323  0.0423
    1DIPC   GL127219   4.326  14.900   3.299 -0.1971  0.0362  0.3250
    1DIPC   GL227220   4.321  15.124   3.466  0.0132  0.1199 -0.2857
    1DIPC   C1A27221   4.538  14.661   3.675 -0.2185  0.0694  0.0484
    1DIPC   D2A27222   4.337  14.583   4.031  0.2534  0.2289 -0.0230
    1DIPC   D3A27223   3.935  14.361   4.029 -0.0875  0.2585  0.1698
    1DIPC   C4A27224   3.841  13.967   3.761 -0.1545  0.1260  0.0586
    1DIPC   C1B27225   4.206  15.188   3.926  0.0236 -0.0570 -0.3773
    1DIPC   D2B27226   4.322  15.427   4.221  0.0765 -0.3086 -0.0957
    1DIPC   D3B27227   4.220  15.295   4.727 -0.1097 -0.0174  0.0435
    1DIPC   C4B27228   3.900  15.518   4.843  0.0685  0.3642  0.3474
    1DIPC   NC327229   5.404  18.325   2.501  0.0288  0.4033  0.2340
    1DIPC   PO427230   5.624  18.062   2.790  0.1329  0.1663  0.3946
    1DIPC   GL127231   5.747  18.074   3.112  0.0626  0.1690  0.0366
    1DIPC   GL227232   5.511  18.223   3.282 -0.1757 -0.0401  0.2610
    1DIPC   C1A27233   5.982  18.120   3.476 -0.2827  0.2747 -0.4157
    1DIPC   D2A27234   6.081  18.307   3.885  0.2400  0.3103 -0.2387
    1DIPC   D3A27235   5.699  18.391   4.111 -0.0404 -0.2105  0.0675
    1DIPC   C4A27236   5.717  18.500   4.541 -0.0555  0.1622 -0.0797
    1DIPC   C1B27237   5.335  18.425   3.591 -0.0271 -0.2185  0.2529
    1DIPC   D2B27238   5.201  18.557   3.988  0.0919 -0.0356  0.1805
    1DIPC   D3B27239   5.211  18.881   4.269  0.0024  0.0698  0.3664
    1DIPC   C4B27240   5.284  19.226   4.116 -0.2924 -0.1450 -0.0074
    1DIPC   NC327241  15.749  27.023   2.471  0.0739 -0.0062 -0.0317
    1DIPC   PO427242  16.175  27.017   2.627  0.0806 -0.1165 -0.0395
    1DIPC   GL127243  15.950  26.972   2.971 -0.1021 -0.1397  0.1296
    1DIPC   GL227244  15.620  26.852   2.956 -0.0390  0.1557 -0.1491
    1DIPC   C1A27245  15.821  27.133   3.458  0.3315 -0.0775  0.2488
    1DIPC   D2A27246  15.541  27.253   3.779  0.1639 -0.3168  0.1579
    1DIPC   D3A27247  15.500  27.471   4.070 -0.1947  0.1507 -0.1570
    1DIPC   C4A27248  15.537  27.332   4.510  0.1010 -0.0646  0.0493
    1DIPC   C1B27249  15.470  26.613   3.325 -0.1499  0.2828 -0.1807
    1DIPC   D2B27250  15.362  26.656   3.766 -0.2697  0.0364  0.0082
    1DIPC   D3B27251  15.129  27.033   3.828 -0.1836  0.0321  0.1506
    1DIPC   C4B27252  15.082  27.250   4.244 -0.0872  0.0801 -0.2082
    1DIPC   NC327253  13.078   8.862   2.715 -0.2501 -0.0840 -0.1736
    1DIPC   PO427254  12.801   9.054   3.069  0.1421 -0.0049 -0.1352
    1DIPC   GL127255  12.501   9.324   3.294 -0.1284 -0.2596 -0.0703
    1DIPC   GL227256  12.640   9.631   3.394  0.2608  0.0931 -0.1046
    1DIPC   C1A27257  12.353   9.437   3.825 -0.2393 -0.2638  0.2034
    1DIPC   D2A27258  12.214   9.770   4.153 -0.1164 -0.2138  0.1212
    1DIPC   D3A27259  12.084   9.826   4.552  0.4247 -0.1260 -0.0646
    1DIPC   C4A27260  11.858   9.442   4.768 -0.2914  0.2249  0.0711
    1DIPC   C1B27261  12.937   9.525   3.677 -0.0427 -0.2145 -0.2986
    1DIPC   D2B27262  13.213   9.659   3.975  0.0216  0.0445 -0.1335
    1DIPC   D3B27263  13.226   9.727   4.463  0.0024  0.1040  0.0219
    1DIPC   C4B27264  12.781   9.570   4.681  0.0601  0.1533  0.1047
    1DIPC   NC327265   8.481   0.787   2.676  0.3660  0.2000 -0.0462
    1DIPC   PO427266   8.261   0.941   3.038  0.2611  0.0077  0.0164
    1DIPC   GL127267   8.185   0.767   3.516  0.0389  0.1731  0.1220
    1DIPC   GL227268   7.983   0.617   3.479  0.2107  0.0672 -0.1304
    1DIPC   C1A27269   8.300   0.563   3.906 -0.0279 -0.0354  0.0494
    1DIPC   D2A27270   8.166   0.295   4.242 -0.1767 -0.3988 -0.1859
    1DIPC   D3A27271   7.704   0.379   4.534  0.3383 -0.0319 -0.1737
    1DIPC   C4A27272   7.271   0.101   4.698 -0.0220 -0.2528 -0.0293
    1DIPC   C1B27273   7.720   0.527   3.821 -0.0763 -0.2215 -0.0339
    1DIPC   D2B27274   7.526   0.201   4.100 -0.0676 -0.1612  0.1127
    1DIPC   D3B27275   7.228   0.395   4.214  0.0073 -0.0225 -0.1702
    1DIPC   C4B27276   7.155   0.632   4.687  0.1604  0.1748 -0.2209
    1DIPC   NC327277   7.445  28.430   2.488 -0.3720 -0.1560 -0.0190
    1DIPC   PO427278   7.409  28.896   2.709 -0.0566 -0.0077 -0.1130
    1DIPC   GL127279   7.514  29.112   3.072  0.4140 -0.1359 -0.1882
    1DIPC   GL227280   7.227  29.301   3.152 -0.3324 -0.1669  0.1726
    1DIPC   C1A27281   7.665  28.949   3.449  0.1504 -0.2187 -0.0135
    1DIPC   D2A27282   7.745  28.963   3.964  0.1835  0.0393 -0.1040
    1DIPC   D3A27283   8.122  28.676   4.000  0.3319  0.3901 -0.3459
    1DIPC   C4A27284   8.065  28.262   4.233  0.1706 -0.1000  0.1174
    1DIPC   C1B27285   7.141  28.927   3.376 -0.0777 -0.0769  0.0308
    1DIPC   D2B27286   7.185  28.799   3.782  0.4379 -0.1450  0.1624
    1DIPC   D3B27287   6.677  28.741   3.840  0.1890  0.0588  0.0169
    1DIPC   C4B27288   6.398  29.069   3.954 -0.0574  0.1130 -0.3066
    1DIPC   NC327289   4.098  10.381   3.008 -0.0429  0.0738 -0.2797
    1DIPC   PO427290   4.441  10.103   3.037  0.1500 -0.0336  0.2196
    1DIPC   GL127291   4.509  10.042   3.444 -0.3017 -0.0053 -0.2549
    1DIPC   GL227292   4.715   9.716   3.481 -0.1070 -0.0748  0.1112
    1DIPC   C1A27293   4.581  10.130   3.858 -0.2537 -0.0376  0.1551
    1DIPC   D2A27294   4.496  10.375   4.119 -0.2711  0.3574  0.0123
    1DIPC   D3A27295   4.593  10.053   4.474 -0.1316  0.1315  0.2193
    1DIPC   C4A27296   4.669  10.190   4.849 -0.0742  0.2226  0.1034
    1DIPC   C1B27297   4.912   9.691   3.849  0.1877  0.0373 -0.0395
    1DIPC   D2B27298   4.559   9.380   4.047 -0.2051 -0.0973  0.1561
    1DIPC   D3B27299   4.329   9.690   3.954 -0.2359  0.0667  0.0559
    1DIPC   C4B27300   4.181   9.903   4.251 -0.0391 -0.2145  0.1291
    1DIPC   NC327301  13.831  13.453   2.297  0.0847 -0.1840 -0.2650
    1DIPC   PO427302  13.375  13.582   2.452  0.2663  0.0706  0.2627
    1DIPC   GL127303  13.383  13.821   2.785 -0.0403  0.0460  0.0525
    1DIPC   GL227304  13.170  13.798   3.057 -0.0783 -0.0215 -0.1868
    1DIPC   C1A27305  13.668  13.853   3.120 -0.1989  0.0729 -0.0589
    1DIPC   D2A27306  13.669  13.879   3.558 -0.2540 -0.1551 -0.1992
    1DIPC   D3A27307  14.109  13.773   3.352  0.1194 -0.2049 -0.0570
    1DIPC   C4A27308  14.126  13.777   2.892 -0.1927  0.1379 -0.1556
    1DIPC   C1B27309  13.402  14.190   3.265 -0.2653  0.1026  0.0076
    1DIPC   D2B27310  13.222  14.404   3.580 -0.2415 -0.1305  0.1548
    1DIPC   D3B27311  13.337  14.069   3.908  0.2272 -0.0491  0.0428
    1DIPC   C4B27312  13.103  14.050   4.242 -0.1174  0.0087 -0.0071
    1DIPC   NC327313  22.622  26.748   3.002 -0.0732  0.0682 -0.0543
    1DIPC   PO427314  22.627  27.241   3.014  0.1311  0.0468 -0.0424
    1DIPC   GL127315  22.544  27.160   3.449 -0.1057 -0.1463  0.0070
    1DIPC   GL227316  22.589  27.530   3.536 -0.0263  0.0559  0.2550
    1DIPC   C1A27317  22.567  27.072   3.874  0.0937 -0.1612 -0.1687
    1DIPC   D2A27318  22.921  26.927   4.062 -0.1667  0.0280  0.3505
    1DIPC   D3A27319  23.377  27.143   3.979  0.5044 -0.0823 -0.2076
    1DIPC   C4A27320  23.529  27.558   4.053  0.0619 -0.4080  0.3072
    1DIPC   C1B27321  22.391  27.625   3.960 -0.0845  0.1767 -0.0861
    1DIPC   D2B27322  22.340  27.294   4.272 -0.2396  0.2278 -0.1628
    1DIPC   D3B27323  22.620  27.045   4.428  0.0492 -0.0229  0.1738
    1DIPC   C4B27324  23.046  27.106   4.698  0.1527  0.1290 -0.2868
    1DIPC   NC327325  27.782  24.361   2.925  0.0509 -0.0403  0.0267
    1DIPC   PO427326  28.122  24.133   2.917 -0.1175 -0.0863 -0.0202
    1DIPC   GL127327  28.156  24.148   3.334 -0.0718 -0.1091 -0.1147
    1DIPC   GL227328  27.875  24.101   3.478  0.0669  0.3969 -0.1049
    1DIPC   C1A27329  28.411  24.174   3.689 -0.3946  0.0311  0.3145
    1DIPC   D2A27330  28.843  24.048   3.787 -0.1467 -0.0086 -0.0791
    1DIPC   D3A27331  29.030  23.608   3.956  0.0718  0.0755  0.2437
    1DIPC   C4A27332  29.079  23.409   3.618  0.0031 -0.2817 -0.2660
    1DIPC   C1B27333  27.953  24.208   3.949 -0.0386  0.3597  0.1467
    1DIPC   D2B27334  27.621  24.219   4.217  0.0672  0.1253 -0.2868
    1DIPC   D3B27335  27.925  24.280   4.614  0.1875  0.1671 -0.3616
    1DIPC   C4B27336  27.722  24.369   4.970 -0.1195  0.0381 -0.0894
    1DIPC   NC327337  13.739  28.366   2.907 -0.0549  0.0285  0.1283
    1DIPC   PO427338  13.380  27.989   2.946 -0.0334  0.3093 -0.0432
    1DIPC   GL127339  13.564  27.992   3.401  0.0003 -0.2096  0.0461
    1DIPC   GL227340  13.449  27.874   3.620  0.2134  0.2166 -0.1106
    1DIPC   C1A27341  13.788  28.041   3.882  0.2419  0.1625 -0.0083
    1DIPC   D2A27342  13.645  28.068   4.279  0.2454 -0.2113 -0.1504
    1DIPC   D3A27343  13.402  28.332   4.237 -0.2701 -0.0374  0.2114
    1DIPC   C4A27344  13.296  28.284   4.644  0.0297 -0.0599 -0.4389
    1DIPC   C1B27345  13.459  27.635   3.943 -0.0492 -0.0209  0.1297
    1DIPC   D2B27346  13.433  27.238   4.045 -0.2937 -0.0118 -0.0018
    1DIPC   D3B27347  13.512  27.106   4.397 -0.0539  0.1755 -0.1241
    1DIPC   C4B27348  13.629  26.754   4.392 -0.3352  0.0498  0.0961
    1DIPC   NC327349  16.310  27.742   2.621 -0.2774 -0.0033 -0.2063
    1DIPC   PO427350  16.585  27.379   2.537  0.2814 -0.0037  0.0226
    1DIPC   GL127351  16.629  27.182   2.895  0.0540 -0.3623  0.1044
    1DIPC   GL227352  16.886  26.992   2.966 -0.1597 -0.1886  0.0510
    1DIPC   C1A27353  16.613  27.329   3.390 -0.1294 -0.0143  0.1136
    1DIPC   D2A27354  16.577  27.774   3.517 -0.1299  0.1540 -0.1448
    1DIPC   D3A27355  16.420  27.711   3.903 -0.1554 -0.0405 -0.0331
    1DIPC   C4A27356  16.302  28.107   4.189 -0.1839  0.2088  0.0927
    1DIPC   C1B27357  16.896  26.951   3.425  0.1369  0.1027  0.0636
    1DIPC   D2B27358  16.857  26.576   3.490  0.2979 -0.4062  0.3846
    1DIPC   D3B27359  17.115  26.414   3.800 -0.1023  0.2236 -0.2456
    1DIPC   C4B27360  17.483  26.194   3.728  0.1500 -0.2917  0.1055
    1DIPC   NC327361  28.868  17.749   2.733  0.0067  0.0166  0.0585
    1DIPC   PO427362  28.579  17.731   3.135  0.0538  0.1190  0.0118
    1DIPC   GL127363  28.682  17.819   3.540  0.0122 -0.1701  0.0182
    1DIPC   GL227364  28.332  17.942   3.621 -0.4585  0.1527 -0.0236
    1DIPC   C1A27365  28.843  17.585   3.990 -0.3008  0.1559  0.1202
    1DIPC   D2A27366  28.792  17.402   4.413 -0.0370 -0.0445  0.1793
    1DIPC   D3A27367  29.204  17.287   4.709 -0.0703 -0.0107 -0.1591
    1DIPC   C4A27368  29.470  16.896   4.649 -0.0745 -0.1582 -0.0725
    1DIPC   C1B27369  28.505  18.155   3.996 -0.2230  0.2002 -0.4336
    1DIPC   D2B27370  28.886  18.371   4.079 -0.1857 -0.0017 -0.1067
    1DIPC   D3B27371  28.569  18.661   4.183 -0.1664 -0.3360 -0.1567
    1DIPC   C4B27372  28.321  19.041   4.071  0.0411  0.1408 -0.0491
    1DIPC   NC327373   9.194   7.492   2.018  0.0751  0.1304 -0.3023
    1DIPC   PO427374   9.250   7.352   2.537  0.0260 -0.0340 -0.0919
    1DIPC   GL127375   9.373   7.645   2.766 -0.0380  0.0056  0.0509
    1DIPC   GL227376   9.178   7.975   2.858  0.1248 -0.0460 -0.1941
    1DIPC   C1A27377   9.586   7.788   3.126 -0.0046  0.1336  0.1313
    1DIPC   D2A27378   9.585   7.889   3.495 -0.0834 -0.1437  0.3165
    1DIPC   D3A27379   9.505   8.267   3.689  0.2100 -0.1112 -0.2937
    1DIPC   C4A27380   9.622   8.390   4.102  0.0617 -0.1462  0.0132
    1DIPC   C1B27381   9.154   7.986   3.316  0.0950 -0.0612  0.4103
    1DIPC   D2B27382   9.044   7.863   3.776  0.3574  0.0981 -0.1169
    1DIPC   D3B27383   8.869   8.101   3.975  0.4467 -0.1982  0.0233
    1DIPC   C4B27384   9.119   8.539   4.028  0.1011  0.1148  0.0452
    1DIPC   NC327385  14.105  23.130   1.553  0.0318 -0.0101 -0.2097
    1DIPC   PO427386  13.935  23.518   1.629  0.3544 -0.0904 -0.1259
    1DIPC   GL127387  14.038  23.395   1.990 -0.1959  0.1443 -0.2773
    1DIPC   GL227388  13.830  23.381   2.207  0.0636  0.0622  0.0717
    1DIPC   C1A27389  14.164  23.032   2.158  0.0390  0.1273 -0.4124
    1DIPC   D2A27390  14.608  23.023   2.311 -0.1406 -0.0055 -0.0052
    1DIPC   D3A27391  14.387  23.458   2.338 -0.0671 -0.1772 -0.1927
    1DIPC   C4A27392  14.212  23.834   2.481  0.0552 -0.2250  0.1056
    1DIPC   C1B27393  13.594  23.014   2.275 -0.0108 -0.2184 -0.0310
    1DIPC   D2B27394  13.255  22.959   2.422  0.2736  0.0263 -0.0892
    1DIPC   D3B27395  13.300  23.119   2.834 -0.0609  0.1313 -0.0383
    1DIPC   C4B27396  13.695  22.973   3.149 -0.1485 -0.2254  0.2246
    1DIPC   NC327397   5.929  15.922   2.622 -0.1037  0.0825 -0.0665
    1DIPC   PO427398   5.487  15.829   2.937 -0.1864 -0.2149  0.1907
    1DIPC   GL127399   5.585  15.463   3.088  0.3008  0.0039  0.1335
    1DIPC   GL227400   5.721  15.101   3.024  0.2861  0.0073 -0.0338
    1DIPC   C1A27401   5.443  15.172   3.410  0.1802 -0.1564 -0.1964
    1DIPC   D2A27402   5.537  15.033   3.824 -0.1720 -0.0175 -0.0549
    1DIPC   D3A27403   5.246  15.087   4.119  0.1429 -0.1744 -0.0197
    1DIPC   C4A27404   4.844  14.871   4.030  0.1006  0.0255 -0.1777
    1DIPC   C1B27405   5.888  15.036   3.456 -0.1343 -0.1007 -0.0040
    1DIPC   D2B27406   6.148  14.877   3.695  0.0370 -0.1297  0.1575
    1DIPC   D3B27407   5.984  14.620   3.997 -0.1253 -0.0477  0.1754
    1DIPC   C4B27408   6.136  14.209   4.029  0.0928  0.0036  0.2700
    1DIPC   NC327409  16.652   1.123   4.149 -0.1400 -0.1734  0.3445
    1DIPC   PO427410  16.352   1.424   4.303 -0.0894  0.0118  0.0896
    1DIPC   GL127411  16.366   1.316   4.715 -0.3089  0.1635 -0.1219
    1DIPC   GL227412  16.456   1.014   4.714 -0.0654  0.1913 -0.1115
    1DIPC   C1A27413  16.242   1.287   5.052  0.0694  0.0856  0.1991
    1DIPC   D2A27414  16.365   1.425   5.456  0.1188  0.2486 -0.2181
    1DIPC   D3A27415  16.021   1.703   5.622 -0.2606  0.3424  0.0623
    1DIPC   C4A27416  15.554   1.596   5.671 -0.0651 -0.1248 -0.2662
    1DIPC   C1B27417  16.048   0.771   4.693 -0.2404 -0.1413 -0.3331
    1DIPC   D2B27418  15.634   0.690   4.717  0.0693 -0.2797  0.1303
    1DIPC   D3B27419  15.655   0.312   4.977  0.0565  0.0496  0.0665
    1DIPC   C4B27420  15.318  29.778   5.034  0.1495  0.1519 -0.0804
    1DIPC   NC327421   5.599  17.607   2.940  0.0149 -0.0912  0.3436
    1DIPC   PO427422   5.910  17.243   2.896 -0.1898  0.2552  0.0918
    1DIPC   GL127423   6.039  17.566   3.286 -0.1480  0.0592 -0.2332
    1DIPC   GL227424   5.845  17.690   3.443  0.3183  0.1561 -0.2110
    1DIPC   C1A27425   6.382  17.400   3.516 -0.0078 -0.1733 -0.1683
    1DIPC   D2A27426   6.569  17.071   3.759 -0.2620  0.0645  0.1999
    1DIPC   D3A27427   6.913  17.195   4.020  0.0738 -0.2300 -0.0050
    1DIPC   C4A27428   6.828  17.414   4.466 -0.1067  0.0086 -0.1094
    1DIPC   C1B27429   6.067  17.597   3.820  0.1913 -0.3160 -0.1118
    1DIPC   D2B27430   6.314  17.306   4.113 -0.0638  0.0199  0.4063
    1DIPC   D3B27431   6.221  17.162   4.510 -0.1224  0.0055 -0.0701
    1DIPC   C4B27432   6.491  17.096   4.792  0.1546 -0.0500 -0.0801
    1DIPC   NC327433  20.651  26.331   1.910 -0.0615 -0.0552  0.2182
    1DIPC   PO427434  20.581  26.247   2.320  0.2173 -0.0480  0.0094
    1DIPC   GL127435  20.363  26.309   2.714  0.1088  0.1576 -0.3750
    1DIPC   GL227436  20.237  26.623   2.616  0.1458  0.0459  0.0016
    1DIPC   C1A27437  20.271  26.281   3.138  0.3330 -0.0553 -0.0744
    1DIPC   D2A27438  20.110  26.143   3.517  0.0469 -0.1241 -0.0565
    1DIPC   D3A27439  20.250  25.815   3.723  0.0528 -0.2791  0.2145
    1DIPC   C4A27440  20.103  25.382   3.649  0.2169  0.0175  0.0112
    1DIPC   C1B27441  19.936  26.640   2.992 -0.2854  0.1659  0.1834
    1DIPC   D2B27442  19.638  26.719   2.913 -0.3564  0.1234  0.1949
    1DIPC   D3B27443  19.545  26.897   3.308  0.0114 -0.0143 -0.1173
    1DIPC   C4B27444  19.237  26.787   3.712 -0.0711  0.0860  0.0096
    1DIPC   NC327445  11.315  20.876   2.015 -0.0750 -0.0133 -0.1974
    1DIPC   PO427446  11.317  20.375   2.086 -0.1737 -0.0826 -0.0111
    1DIPC   GL127447  11.653  20.346   2.432 -0.2103 -0.0520  0.0980
    1DIPC   GL227448  11.556  20.659   2.567 -0.0719  0.0488  0.2188
    1DIPC   C1A27449  11.948  20.510   2.761 -0.0933  0.0840  0.0308
    1DIPC   D2A27450  12.233  20.492   3.082 -0.1304 -0.1556  0.2652
    1DIPC   D3A27451  12.398  20.797   3.357  0.0179  0.2132  0.1650
    1DIPC   C4A27452  12.696  20.755   3.726 -0.3645 -0.1761 -0.0917
    1DIPC   C1B27453  11.198  20.732   2.902 -0.2486  0.1427  0.0085
    1DIPC   D2B27454  11.206  20.836   3.339 -0.1226  0.1127  0.1229
    1DIPC   D3B27455  11.406  20.503   3.721  0.1525  0.1233 -0.2684
    1DIPC   C4B27456  11.788  20.285   3.488  0.0461 -0.0114 -0.3804
    1DIPC   NC327457  22.522  22.275   2.764  0.1245  0.1235 -0.0753
    1DIPC   PO427458  22.355  22.612   2.578 -0.1750 -0.2947  0.0231
    1DIPC   GL127459  22.402  22.645   3.091 -0.3606  0.2340 -0.1063
    1DIPC   GL227460  22.096  22.431   2.985  0.0158 -0.0837  0.0701
    1DIPC   C1A27461  22.504  22.716   3.470  0.1722  0.2077 -0.0588
    1DIPC   D2A27462  22.595  23.105   3.520 -0.0498 -0.0677 -0.0314
    1DIPC   D3A27463  22.820  23.135   3.915 -0.0981  0.0024 -0.1991
    1DIPC   C4A27464  23.180  23.285   3.947  0.1389 -0.0771  0.0150
    1DIPC   C1B27465  21.886  22.767   3.194  0.0402 -0.3426 -0.0943
    1DIPC   D2B27466  21.487  23.016   3.167  0.0495 -0.2129  0.1554
    1DIPC   D3B27467  21.399  22.486   3.267  0.0490  0.0279  0.2326
    1DIPC   C4B27468  21.253  22.212   3.626 -0.0722  0.0719 -0.3113
    1DIPC   NC327469  11.504   3.446   4.027  0.1412 -0.0777 -0.0136
    1DIPC   PO427470  11.207   3.245   4.234 -0.2793  0.0896 -0.0559
    1DIPC   GL127471  11.163   3.305   4.588  0.2752 -0.1644  0.2634
    1DIPC   GL227472  11.008   3.531   4.697  0.1408 -0.2298 -0.2697
    1DIPC   C1A27473  11.475   3.387   4.986  0.0260 -0.0720 -0.1051
    1DIPC   D2A27474  11.625   3.289   5.467  0.1043 -0.1029  0.2004
    1DIPC   D3A27475  11.291   3.604   5.425 -0.0033 -0.1592  0.5199
    1DIPC   C4A27476  11.274   3.949   5.595  0.1101 -0.1231  0.2954
    1DIPC   C1B27477  10.952   3.384   5.083 -0.0369 -0.2427  0.1838
    1DIPC   D2B27478  10.756   3.526   5.452  0.0666  0.3806  0.0896
    1DIPC   D3B27479  10.557   3.085   5.418 -0.1098  0.1116  0.2258
    1DIPC   C4B27480  10.418   2.831   5.880  0.0149  0.0266 -0.0526
    1DIPC   NC327481  20.047  28.311   2.759  0.0595 -0.0112  0.0420
    1DIPC   PO427482  19.757  28.134   3.070  0.0139 -0.0872  0.0443
    1DIPC   GL127483  19.585  28.115   3.564  0.2816  0.0968 -0.1538
    1DIPC   GL227484  19.709  27.860   3.714 -0.1090  0.2022 -0.1388
    1DIPC   C1A27485  19.434  28.299   3.946  0.2098 -0.0980  0.0333
    1DIPC   D2A27486  19.434  28.191   4.425  0.3178 -0.4275 -0.0154
    1DIPC   D3A27487  19.664  28.546   4.614  0.0439 -0.3669  0.1022
    1DIPC   C4A27488  20.024  28.414   4.367  0.0438 -0.1634  0.0152
    1DIPC   C1B27489  19.488  27.813   4.082 -0.3988  0.1456 -0.2891
    1DIPC   D2B27490  19.444  27.704   4.584  0.0981 -0.0578  0.1031
    1DIPC   D3B27491  19.084  27.795   4.419 -0.1118  0.0397 -0.1960
    1DIPC   C4B27492  18.971  28.021   3.976  0.3586  0.0303 -0.1731
    1DIPC   NC327493   0.160  13.178   2.881  0.2375  0.1622 -0.3397
    1DIPC   PO427494   0.254  12.806   3.155  0.2694  0.2448  0.1070
    1DIPC   GL127495   0.423  12.937   3.582  0.0719  0.0709  0.0632
    1DIPC   GL227496   0.721  13.050   3.491 -0.0575  0.2784  0.1577
    1DIPC   C1A27497   0.539  13.167   3.995  0.2207 -0.0447  0.0616
    1DIPC   D2A27498   0.479  13.258   4.454 -0.2775 -0.1187 -0.0879
    1DIPC   D3A27499   0.798  13.475   4.645 -0.0338  0.2454  0.0498
    1DIPC   C4A27500   1.126  13.762   4.711 -0.0357  0.0554  0.0288
    1DIPC   C1B27501   0.880  12.735   3.739  0.2310 -0.0440  0.4152
    1DIPC   D2B27502   0.983  12.763   4.245  0.2118  0.2362  0.1950
    1DIPC   D3B27503   0.885  12.791   4.683 -0.2691  0.1398  0.1952
    1DIPC   C4B27504   0.818  12.946   5.181 -0.1868 -0.2069  0.0108
    1DIPC   NC327505  25.270   9.974   2.557  0.0890  0.2309  0.0998
    1DIPC   PO427506  25.378   9.486   2.723  0.1584 -0.0150 -0.0080
    1DIPC   GL127507  25.576   9.439   3.181  0.0275 -0.4407  0.0767
    1DIPC   GL227508  25.567   9.780   3.202 -0.0739 -0.1694  0.0300
    1DIPC   C1A27509  25.650   9.570   3.616 -0.0862  0.1378 -0.1373
    1DIPC   D2A27510  25.926   9.615   3.907  0.0332 -0.2747  0.0735
    1DIPC   D3A27511  26.160  10.005   4.052  0.1268  0.2706 -0.0589
    1DIPC   C4A27512  26.495   9.890   4.284 -0.3813  0.1981 -0.0994
    1DIPC   C1B27513  25.310   9.961   3.411  0.1440 -0.0752  0.0415
    1DIPC   D2B27514  25.030   9.956   3.783 -0.0640 -0.1724 -0.0881
    1DIPC   D3B27515  25.024  10.227   4.145 -0.3090  0.1450 -0.0654
    1DIPC   C4B27516  25.508  10.206   4.411 -0.1709 -0.0465  0.3921
    1DIPC   NC327517  23.033  27.433   3.222  0.0337  0.2061  0.2765
    1DIPC   PO427518  23.100  26.995   3.101  0.0406 -0.2003 -0.0165
    1DIPC   GL127519  23.108  26.812   3.622 -0.2424  0.0320 -0.0488
    1DIPC   GL227520  23.463  26.684   3.709  0.4047  0.0518 -0.2028
    1DIPC   C1A27521  23.017  26.476   3.940 -0.1649  0.4168  0.0995
    1DIPC   D2A27522  22.960  26.142   4.290  0.0295 -0.2267 -0.1039
    1DIPC   D3A27523  22.703  26.486   4.402 -0.0341 -0.0642  0.2986
    1DIPC   C4A27524  22.296  26.667   4.634 -0.2032 -0.0631  0.1615
    1DIPC   C1B27525  23.420  26.700   4.127  0.1015 -0.0382  0.1677
    1DIPC   D2B27526  23.200  26.721   4.529  0.1463  0.3928 -0.2441
    1DIPC   D3B27527  23.336  26.374   4.675  0.1374 -0.2438  0.1768
    1DIPC   C4B27528  23.498  26.117   5.024 -0.0207  0.1070  0.1706
    1DIPC   NC327529  28.047   3.086   2.993 -0.4001 -0.2667  0.2036
    1DIPC   PO427530  27.687   2.800   2.914  0.1469 -0.1563 -0.4034
    1DIPC   GL127531  27.509   2.845   3.286 -0.2681  0.0283 -0.0561
    1DIPC   GL227532  27.456   2.510   3.276  0.1010 -0.0194  0.2269
    1DIPC   C1A27533  27.533   3.019   3.695  0.1186 -0.0726 -0.1041
    1DIPC   D2A27534  27.580   3.460   3.862 -0.2333  0.0555 -0.0509
    1DIPC   D3A27535  27.196   3.268   4.043  0.0397 -0.0784 -0.2564
    1DIPC   C4A27536  27.049   3.019   3.681 -0.0680  0.0569  0.1067
    1DIPC   C1B27537  27.638   2.406   3.672  0.0028 -0.0589 -0.1416
    1DIPC   D2B27538  27.651   2.254   4.025 -0.0249  0.0246  0.2558
    1DIPC   D3B27539  27.452   2.384   4.400 -0.2017 -0.1971  0.1297
    1DIPC   C4B27540  27.680   2.138   4.744  0.2905  0.2781 -0.0972
    1DIPC   NC327541  11.083  28.893   2.853  0.1065 -0.0804  0.2090
    1DIPC   PO427542  11.082  28.744   3.226 -0.0708  0.1491  0.0545
    1DIPC   GL127543  11.006  28.972   3.621 -0.1753 -0.1911  0.2321
    1DIPC   GL227544  10.739  29.166   3.691 -0.0301 -0.0680 -0.0800
    1DIPC   C1A27545  11.188  29.033   4.029 -0.1502 -0.0256 -0.2271
    1DIPC   D2A27546  11.021  28.896   4.376 -0.0710 -0.2467  0.2547
    1DIPC   D3A27547  10.901  29.097   4.790 -0.1348 -0.2334 -0.0538
    1DIPC   C4A27548  10.548  29.256   4.856 -0.0172  0.1197  0.1216
    1DIPC   C1B27549  10.689  29.055   4.123 -0.4213 -0.4416  0.0656
    1DIPC   D2B27550  10.776  29.370   4.410 -0.1528 -0.0113 -0.1329
    1DIPC   D3B27551  11.244  29.397   4.397 -0.1764 -0.0395 -0.1210
    1DIPC   C4B27552  11.519  29.463   4.813 -0.0108 -0.0510 -0.0801
    1DIPC   NC327553  25.477  27.833   2.654 -0.1481  0.0380 -0.0126
    1DIPC   PO427554  25.313  27.464   2.719  0.2259  0.2559  0.2204
    1DIPC   GL127555  25.460  27.478   3.185  0.1421 -0.0407 -0.0907
    1DIPC   GL227556  25.490  27.761   3.131  0.0757  0.0417 -0.2344
    1DIPC   C1A27557  25.297  27.658   3.588 -0.0770  0.0973  0.0114
    1DIPC   D2A27558  25.216  28.078   3.878  0.1156 -0.0795 -0.1863
    1DIPC   D3A27559  25.312  27.971   4.382 -0.2876 -0.0452 -0.1237
    1DIPC   C4A27560  25.107  27.584   4.595  0.1712  0.1397  0.0546
    1DIPC   C1B27561  25.432  28.154   3.442 -0.0820  0.0663  0.0412
    1DIPC   D2B27562  25.462  28.461   3.692  0.2311  0.2240 -0.4542
    1DIPC   D3B27563  25.872  28.671   3.905 -0.3069  0.1155 -0.0450
    1DIPC   C4B27564  26.222  28.630   3.805 -0.1733 -0.1238  0.0720
    1DIPC   NC327565   3.390   1.612   3.108  0.2894  0.0549  0.1313
    1DIPC   PO427566   3.521   2.052   3.390 -0.2580  0.3861  0.1834
    1DIPC   GL127567   3.569   1.750   3.772  0.0264 -0.0569 -0.1972
    1DIPC   GL227568   3.276   1.906   3.941  0.3778 -0.1036 -0.1616
    1DIPC   C1A27569   3.773   1.503   4.147  0.2023  0.2113  0.0185
    1DIPC   D2A27570   3.809   1.634   4.545  0.1393  0.0296  0.2737
    1DIPC   D3A27571   3.507   1.488   4.655  0.1121  0.0204 -0.1488
    1DIPC   C4A27572   3.336   1.724   4.934 -0.1449 -0.2144 -0.1811
    1DIPC   C1B27573   3.291   1.507   4.159  0.2997  0.1701 -0.2796
    1DIPC   D2B27574   3.001   1.213   4.543 -0.0020 -0.1507 -0.4142
    1DIPC   D3B27575   2.999   1.348   5.007 -0.0259 -0.4316 -0.0249
    1DIPC   C4B27576   2.813   1.723   5.040 -0.0701 -0.2424  0.1460
    1DIPC   NC327577   8.288  15.208   2.607  0.2959 -0.2953  0.0465
    1DIPC   PO427578   8.716  15.064   2.386  0.2336  0.1992 -0.0752
    1DIPC   GL127579   8.873  14.857   2.805 -0.0701 -0.3157  0.2128
    1DIPC   GL227580   9.086  14.948   2.937 -0.0675  0.0404 -0.0309
    1DIPC   C1A27581   8.681  14.881   3.173  0.2581  0.2575  0.1992
    1DIPC   D2A27582   8.366  14.479   3.308  0.0918  0.1204  0.0221
    1DIPC   D3A27583   7.938  14.372   3.368  0.3389 -0.2508 -0.2034
    1DIPC   C4A27584   7.835  14.101   3.611  0.2670  0.0658  0.0383
    1DIPC   C1B27585   9.177  14.979   3.326  0.0685 -0.2058 -0.1590
    1DIPC   D2B27586   9.529  15.040   3.707  0.3000  0.1085 -0.0860
    1DIPC   D3B27587   9.302  14.663   3.793 -0.0765  0.0154  0.2581
    1DIPC   C4B27588   8.883  14.856   3.749  0.1375  0.2964  0.0091
    1DIPC   NC327589  12.450  10.089   2.496 -0.3353 -0.2960  0.0297
    1DIPC   PO427590  12.606  10.481   2.542 -0.5245  0.1895 -0.1693
    1DIPC   GL127591  12.689  10.618   3.011  0.1777  0.4112 -0.1616
    1DIPC   GL227592  12.879  10.890   3.196  0.0552  0.0591  0.0768
    1DIPC   C1A27593  12.640  10.644   3.516 -0.1137 -0.0409 -0.1374
    1DIPC   D2A27594  12.583  10.490   3.909  0.2183  0.1604  0.1589
    1DIPC   D3A27595  12.576  10.647   4.270 -0.0376 -0.0902  0.2009
    1DIPC   C4A27596  12.948  10.568   4.511 -0.1742 -0.1019  0.0437
    1DIPC   C1B27597  13.135  10.537   3.380 -0.1435 -0.1009 -0.2831
    1DIPC   D2B27598  13.459  10.454   3.637 -0.0939  0.1582 -0.1396
    1DIPC   D3B27599  13.853  10.708   3.447  0.0757 -0.1632 -0.1416
    1DIPC   C4B27600  13.927  11.156   3.498 -0.1389  0.0639  0.2276
    1DIPC   NC327601   1.098  20.394   2.779 -0.0269 -0.1324  0.3469
    1DIPC   PO427602   1.397  20.762   2.716 -0.1081 -0.1241  0.0380
    1DIPC   GL127603   1.321  20.867   3.099 -0.2151  0.1610 -0.2430
    1DIPC   GL227604   0.995  20.700   3.131  0.0836 -0.1291  0.1167
    1DIPC   C1A27605   1.441  21.044   3.390  0.1316  0.1309 -0.0885
    1DIPC   D2A27606   1.697  21.351   3.571 -0.2175 -0.1638  0.0353
    1DIPC   D3A27607   1.576  20.983   3.890  0.0752  0.2226 -0.0448
    1DIPC   C4A27608   1.640  20.934   4.390  0.1348  0.2764  0.1611
    1DIPC   C1B27609   0.860  20.598   3.418 -0.1876  0.0214  0.0198
    1DIPC   D2B27610   0.783  20.675   3.764 -0.1817 -0.4632  0.0101
    1DIPC   D3B27611   0.661  21.107   4.038 -0.0475 -0.4313 -0.3559
    1DIPC   C4B27612   0.281  21.044   4.279 -0.0665  0.2480  0.0644
    1DIPC   NC327613  24.907  23.723   3.307  0.2237 -0.1127 -0.0917
    1DIPC   PO427614  24.769  23.282   3.233  0.0270 -0.0040  0.0105
    1DIPC   GL127615  24.629  23.288   3.579  0.2655  0.1704  0.0766
    1DIPC   GL227616  24.363  23.453   3.585 -0.0876  0.2081 -0.1140
    1DIPC   C1A27617  24.524  23.221   4.042 -0.1799  0.0296  0.2633
    1DIPC   D2A27618  24.522  23.252   4.509 -0.2756  0.0194 -0.1067
    1DIPC   D3A27619  24.335  22.868   4.391 -0.0199  0.1817 -0.0186
    1DIPC   C4A27620  24.105  22.712   4.638 -0.1592  0.1656  0.2253
    1DIPC   C1B27621  24.381  23.711   3.859  0.0220 -0.0140 -0.0549
    1DIPC   D2B27622  24.346  23.851   4.292  0.2413 -0.0938  0.0829
    1DIPC   D3B27623  24.140  23.630   4.652 -0.1345  0.0791 -0.2205
    1DIPC   C4B27624  24.056  23.218   4.641 -0.1634  0.2394  0.1884
    1DIPC   NC327625   9.490  20.228   2.557  0.1369 -0.0778  0.1786
    1DIPC   PO427626   9.678  20.484   2.337 -0.0729  0.0756 -0.0821
    1DIPC   GL127627   9.726  20.649   2.718  0.1366  0.3064 -0.1105
    1DIPC   GL227628   9.541  20.478   2.992  0.0639  0.1718 -0.2366
    1DIPC   C1A27629   9.934  20.800   3.050  0.3598  0.0401  0.1044
    1DIPC   D2A27630   9.956  21.040   3.381  0.1385  0.2118  0.1833
    1DIPC   D3A27631   9.868  20.724   3.723 -0.0409  0.0440 -0.0362
    1DIPC   C4A27632   9.922  20.279   3.875 -0.3943 -0.3603  0.0574
    1DIPC   C1B27633   9.446  20.914   3.026 -0.0047  0.0425 -0.0282
    1DIPC   D2B27634   9.301  21.327   2.997  0.0360 -0.0821  0.1534
    1DIPC   D3B27635   9.511  21.248   3.400 -0.3348 -0.0827  0.0917
    1DIPC   C4B27636   9.457  20.758   3.496  0.0739 -0.1292  0.3651
    1DIPC   NC327637  24.278  24.857   2.618  0.3586  0.0246 -0.2813
    1DIPC   PO427638  24.651  24.830   2.838 -0.0277 -0.0785  0.0268
    1DIPC   GL127639  24.425  24.868   3.208 -0.1245 -0.2951 -0.2399
    1DIPC   GL227640  24.530  24.607   3.467 -0.0011 -0.0032  0.3035
    1DIPC   C1A27641  24.008  24.936   3.266  0.0110  0.0888  0.0395
    1DIPC   D2A27642  23.672  24.965   3.511  0.0726  0.1049  0.0444
    1DIPC   D3A27643  23.733  25.355   3.770  0.1595 -0.1098 -0.1300
    1DIPC   C4A27644  23.395  25.608   3.806 -0.0829 -0.1607 -0.3283
    1DIPC   C1B27645  24.761  24.565   3.805  0.0731  0.1321 -0.1936
    1DIPC   D2B27646  25.004  24.925   4.108  0.3375  0.0403  0.0567
    1DIPC   D3B27647  25.360  24.735   4.258  0.0921  0.1163 -0.1446
    1DIPC   C4B27648  25.730  24.962   4.170 -0.2904  0.0690  0.0511
    1DIPC   NC327649   0.426  22.794   2.445  0.1306 -0.4085  0.1167
    1DIPC   PO427650   0.333  22.766   2.916 -0.0329 -0.3473 -0.2929
    1DIPC   GL127651   0.694  22.909   3.131  0.0965  0.3153  0.2130
    1DIPC   GL227652   1.023  22.987   3.093 -0.0029  0.0388 -0.2803
    1DIPC   C1A27653   0.639  23.031   3.466  0.0265  0.1114  0.2426
    1DIPC   D2A27654   0.680  23.228   3.921 -0.0573 -0.2357 -0.1201
    1DIPC   D3A27655   1.089  23.341   4.125 -0.0411  0.0210 -0.2387
    1DIPC   C4A27656   1.206  23.623   4.446 -0.1477 -0.3080 -0.1616
    1DIPC   C1B27657   1.214  23.107   3.536  0.1783 -0.0828  0.1007
    1DIPC   D2B27658   1.511  23.124   3.792  0.0213  0.0740 -0.0202
    1DIPC   D3B27659   1.506  23.596   3.821  0.1089 -0.1495  0.4007
    1DIPC   C4B27660   1.568  23.861   4.230  0.1642 -0.0033 -0.2588
    1DIPC   NC327661  13.572  17.831   2.262  0.1904  0.0763  0.1234
    1DIPC   PO427662  13.186  17.951   2.373  0.0676  0.0024 -0.1525
    1DIPC   GL127663  13.426  17.643   2.737  0.1222  0.1491  0.3722
    1DIPC   GL227664  13.319  17.372   2.760 -0.2344 -0.0872 -0.2910
    1DIPC   C1A27665  13.355  17.588   3.201  0.4415  0.4423 -0.1531
    1DIPC   D2A27666  13.651  17.644   3.632  0.3219 -0.2504 -0.2215
    1DIPC   D3A27667  13.943  17.406   3.821 -0.2433  0.0060  0.1140
    1DIPC   C4A27668  14.101  17.476   4.158  0.2200  0.0428 -0.1862
    1DIPC   C1B27669  13.090  17.126   3.197 -0.1208 -0.0254  0.0052
    1DIPC   D2B27670  13.026  16.795   3.340  0.2515 -0.1131 -0.3146
    1DIPC   D3B27671  12.899  16.856   3.806 -0.0370  0.0227 -0.0147
    1DIPC   C4B27672  13.290  16.913   4.021 -0.1298  0.3771 -0.2685
    1DIPC   NC327673   7.386  15.028   2.511 -0.2958 -0.0198  0.2512
    1DIPC   PO427674   7.160  15.453   2.698 -0.2475  0.3766  0.1278
    1DIPC   GL127675   7.580  15.224   2.967  0.1844  0.1338 -0.1441
    1DIPC   GL227676   7.895  15.424   2.877  0.2180 -0.1019 -0.0099
    1DIPC   C1A27677   7.714  15.281   3.440 -0.1022  0.1935  0.5239
    1DIPC   D2A27678   7.666  15.290   3.898 -0.1111 -0.3507 -0.2319
    1DIPC   D3A27679   7.910  15.031   3.908  0.0213  0.2456 -0.0693
    1DIPC   C4A27680   7.792  14.756   4.156  0.0237 -0.3048  0.2825
    1DIPC   C1B27681   8.098  15.597   3.322 -0.2836  0.2421  0.0207
    1DIPC   D2B27682   8.117  15.543   3.709  0.1113  0.2925  0.2060
    1DIPC   D3B27683   8.459  15.658   3.847  0.0374 -0.1489  0.1678
    1DIPC   C4B27684   8.575  15.365   4.112 -0.1975 -0.4205  0.1378
    1DIPC   NC327685   4.385   7.806   2.536 -0.1799 -0.0140  0.0021
    1DIPC   PO427686   4.211   7.864   3.028 -0.0330 -0.0125 -0.0976
    1DIPC   GL127687   4.098   7.718   3.501 -0.0598 -0.3333  0.0068
    1DIPC   GL227688   3.729   7.701   3.615 -0.0942  0.2720  0.0455
    1DIPC   C1A27689   4.070   7.867   3.914 -0.1427  0.1980 -0.1767
    1DIPC   D2A27690   4.110   8.065   4.312 -0.2815 -0.1646  0.1463
    1DIPC   D3A27691   3.680   7.790   4.269 -0.1371 -0.1877  0.0419
    1DIPC   C4A27692   3.571   7.443   4.414 -0.3871 -0.0305  0.1340
    1DIPC   C1B27693   3.396   7.586   3.921  0.0337 -0.0833 -0.2890
    1DIPC   D2B27694   3.116   7.606   4.317  0.1021  0.1146  0.1288
    1DIPC   D3B27695   3.312   7.950   4.620 -0.3933 -0.1038 -0.2222
    1DIPC   C4B27696   3.414   8.328   4.583  0.0915 -0.2078 -0.0248
    1DIPC   NC327697  10.425  29.346   3.025 -0.0323 -0.0532  0.3816
    1DIPC   PO427698   9.967  29.086   3.089 -0.0705 -0.1451 -0.0018
    1DIPC   GL127699   9.843  28.915   3.368  0.0265 -0.0164 -0.3008
    1DIPC   GL227700   9.692  28.675   3.210 -0.2790 -0.0898 -0.2818
    1DIPC   C1A27701   9.750  28.725   3.772 -0.3266  0.0656 -0.0462
    1DIPC   D2A27702   9.842  28.230   3.881  0.0487 -0.0623  0.0766
    1DIPC   D3A27703   9.479  28.220   3.988  0.3686  0.0542 -0.1049
    1DIPC   C4A27704   9.294  28.610   3.918  0.1313  0.0592  0.1402
    1DIPC   C1B27705   9.808  28.384   3.413  0.2002  0.0976  0.0614
    1DIPC   D2B27706  10.039  28.062   3.441  0.1520  0.0344  0.1701
    1DIPC   D3B27707  10.101  27.707   3.562 -0.2763 -0.0964 -0.0830
    1DIPC   C4B27708  10.426  27.468   3.878 -0.0233 -0.0736 -0.1627
    1DIPC   NC327709   9.069  24.525   1.922 -0.3875  0.1133  0.1816
    1DIPC   PO427710   9.303  24.358   2.061 -0.1081  0.0564 -0.0173
    1DIPC   GL127711   9.184  24.464   2.428  0.3057  0.0379  0.1144
    1DIPC   GL227712   9.296  24.656   2.601  0.0286  0.0736 -0.1385
    1DIPC   C1A27713   9.022  24.292   2.879  0.3844 -0.1122 -0.1456
    1DIPC   D2A27714   8.652  23.860   3.031  0.2176 -0.2202  0.0499
    1DIPC   D3A27715   9.013  23.870   3.191  0.0146 -0.1257 -0.0154
    1DIPC   C4A27716   9.217  23.542   3.390 -0.1709  0.0261 -0.0697
    1DIPC   C1B27717   9.604  24.912   2.816 -0.1142  0.0644  0.0408
    1DIPC   D2B27718   9.983  25.016   3.110  0.1461  0.0702 -0.1173
    1DIPC   D3B27719   9.979  24.515   3.223  0.1535 -0.2855 -0.0829
    1DIPC   C4B27720   9.720  24.375   3.617 -0.0133  0.1379  0.1190
    1DIPC   NC327721  24.661   1.657   3.279  0.1681  0.0995  0.0656
    1DIPC   PO427722  24.537   1.846   3.723  0.2400  0.0552 -0.0158
    1DIPC   GL127723  24.517   2.295   3.895 -0.0301 -0.1302  0.0786
    1DIPC   GL227724  24.342   2.151   4.086  0.0885 -0.0019 -0.1613
    1DIPC   C1A27725  24.744   2.707   4.086  0.2696 -0.0884 -0.0273
    1DIPC   D2A27726  24.752   3.116   3.943 -0.3300  0.1763  0.0275
    1DIPC   D3A27727  24.715   3.516   3.995  0.1874 -0.0723 -0.3164
    1DIPC   C4A27728  24.435   3.663   4.314 -0.1107 -0.0520 -0.0396
    1DIPC   C1B27729  24.633   2.282   4.432  0.0259 -0.2992  0.1601
    1DIPC   D2B27730  24.967   2.429   4.727 -0.1062  0.2491  0.2071
    1DIPC   D3B27731  25.189   2.114   4.874  0.0092 -0.2854  0.4245
    1DIPC   C4B27732  25.186   1.898   5.189 -0.1496  0.0225 -0.0843
    1DIPC   NC327733  26.428  25.783   3.173 -0.2425  0.2219 -0.1747
    1DIPC   PO427734  26.088  25.926   3.032  0.0526  0.0544  0.1137
    1DIPC   GL127735  26.201  26.169   3.452  0.0192 -0.1475  0.1802
    1DIPC   GL227736  26.575  26.240   3.371  0.1658  0.2806 -0.0443
    1DIPC   C1A27737  26.148  26.517   3.738  0.0010 -0.1688  0.3126
    1DIPC   D2A27738  26.218  26.617   4.112 -0.4291  0.0234  0.0626
    1DIPC   D3A27739  26.073  26.281   4.474  0.1985  0.0394  0.2367
    1DIPC   C4A27740  25.995  25.879   4.593 -0.1481  0.0644  0.2886
    1DIPC   C1B27741  26.594  26.311   3.900  0.1468 -0.1113  0.2559
    1DIPC   D2B27742  26.802  26.470   4.251 -0.0011 -0.1394 -0.3307
    1DIPC   D3B27743  26.572  26.572   4.527 -0.4398  0.0376  0.2766
    1DIPC   C4B27744  26.602  27.004   4.637 -0.4164 -0.4217  0.0605
    1DIPC   NC327745  17.415   3.086   3.930 -0.1580 -0.1173  0.3637
    1DIPC   PO427746  17.761   3.233   4.309 -0.1486  0.0330  0.1134
    1DIPC   GL127747  17.724   3.026   4.734 -0.1806 -0.1641 -0.0117
    1DIPC   GL227748  17.350   2.918   4.790 -0.2832  0.4658  0.1634
    1DIPC   C1A27749  17.754   3.064   5.165 -0.0509  0.0813 -0.1844
    1DIPC   D2A27750  18.005   3.020   5.548  0.0656 -0.3577  0.1753
    1DIPC   D3A27751  17.932   2.904   5.956 -0.0462  0.0869 -0.1646
    1DIPC   C4A27752  17.498   2.917   6.061 -0.0091  0.1450  0.2599
    1DIPC   C1B27753  17.230   2.902   5.249 -0.2240  0.1224  0.0396
    1DIPC   D2B27754  17.533   3.132   5.602  0.1680 -0.0177 -0.1747
    1DIPC   D3B27755  17.161   2.892   5.700 -0.1091 -0.3856 -0.2822
    1DIPC   C4B27756  16.762   2.959   5.419  0.0382  0.0107  0.0540
    1DIPC   NC327757  12.737   5.810   3.726 -0.1774 -0.0262  0.1453
    1DIPC   PO427758  13.156   5.779   3.937 -0.4027 -0.1655  0.0352
    1DIPC   GL127759  13.043   5.839   4.338  0.0916 -0.1852  0.1159
    1DIPC   GL227760  12.774   5.667   4.333 -0.3112 -0.0383  0.2195
    1DIPC   C1A27761  12.857   6.060   4.684  0.2177  0.1756 -0.1496
    1DIPC   D2A27762  12.623   6.221   4.945 -0.1957 -0.0627 -0.0711
    1DIPC   D3A27763  12.331   6.203   5.336 -0.3110 -0.3090 -0.1455
    1DIPC   C4A27764  12.072   6.460   5.599  0.3075  0.1250  0.1669
    1DIPC   C1B27765  12.488   5.492   4.694  0.0764  0.0536  0.0893
    1DIPC   D2B27766  12.225   5.140   4.678 -0.2323 -0.0788  0.0383
    1DIPC   D3B27767  12.168   5.290   5.055  0.4675 -0.3468 -0.2331
    1DIPC   C4B27768  12.141   4.932   5.278 -0.1296  0.1063 -0.1375
    1DIPC   NC327769  29.596  27.200   1.928 -0.1354 -0.2811 -0.2996
    1DIPC   PO427770  29.186  27.155   2.280  0.1597  0.0133 -0.0767
    1DIPC   GL127771  29.426  27.150   2.696  0.0275  0.1976 -0.0310
    1DIPC   GL227772  29.677  26.994   2.854  0.3370 -0.1440 -0.2895
    1DIPC   C1A27773  29.511  27.459   3.134  0.1212  0.1796  0.2975
    1DIPC   D2A27774  29.410  27.348   3.628  0.3268 -0.0027  0.0520
    1DIPC   D3A27775  29.775  27.641   3.586 -0.1487 -0.1308 -0.1676
    1DIPC   C4A27776  29.732  27.993   3.830  0.1045  0.1772 -0.0513
    1DIPC   C1B27777   0.059  27.115   3.190  0.0990 -0.0308 -0.1687
    1DIPC   D2B27778  29.842  27.085   3.677  0.1058  0.0855  0.0402
    1DIPC   D3B27779   0.212  26.789   3.956 -0.0843  0.1801 -0.2932
    1DIPC   C4B27780   0.646  26.980   4.027  0.1003 -0.0815  0.1284
    1DIPC   NC327781  14.308  18.108   1.996  0.0535  0.0341 -0.0115
    1DIPC   PO427782  13.896  18.222   2.253  0.1407 -0.2912  0.3404
    1DIPC   GL127783  13.626  18.219   2.580  0.0216 -0.1449 -0.1594
    1DIPC   GL227784  13.457  18.501   2.467 -0.0956 -0.1370 -0.2474
    1DIPC   C1A27785  13.559  18.031   3.020 -0.2432 -0.0230 -0.1051
    1DIPC   D2A27786  13.449  18.106   3.485  0.4217  0.0207  0.1980
    1DIPC   D3A27787  13.049  18.291   3.693 -0.2323 -0.2765 -0.3157
    1DIPC   C4A27788  13.029  18.330   4.163  0.2250 -0.1764  0.1656
    1DIPC   C1B27789  13.451  18.525   2.979  0.0109  0.1197  0.1838
    1DIPC   D2B27790  13.791  18.378   3.265 -0.0655 -0.0525  0.1600
    1DIPC   D3B27791  13.911  18.671   3.581 -0.0230  0.3041  0.0022
    1DIPC   C4B27792  14.114  18.464   3.866 -0.0671 -0.0698  0.5194
    1DIPC   NC327793   7.513   6.417   2.525 -0.0682  0.1319  0.2165
    1DIPC   PO427794   7.085   6.416   2.635 -0.1480 -0.2011 -0.5680
    1DIPC   GL127795   7.115   6.440   3.104  0.0794 -0.2478  0.0111
    1DIPC   GL227796   6.867   6.271   3.398 -0.2206 -0.1993  0.0442
    1DIPC   C1A27797   7.412   6.381   3.465 -0.1388 -0.0991 -0.0532
    1DIPC   D2A27798   7.684   6.291   3.905  0.2598  0.4362  0.0912
    1DIPC   D3A27799   7.590   6.629   4.066 -0.2407  0.0083 -0.0994
    1DIPC   C4A27800   7.638   6.916   3.756  0.1540  0.0012 -0.0542
    1DIPC   C1B27801   7.039   6.163   3.736 -0.3474  0.3668  0.0655
    1DIPC   D2B27802   7.305   5.954   4.139  0.0700  0.1976 -0.0966
    1DIPC   D3B27803   7.633   6.223   4.405 -0.0605  0.1455 -0.1063
    1DIPC   C4B27804   7.482   6.409   4.847  0.0337  0.2531  0.1556
    1DIPC   NC327805   4.593   1.527   2.624 -0.2657 -0.5223 -0.0709
    1DIPC   PO427806   5.010   1.374   2.642  0.2235  0.1096  0.1684
    1DIPC   GL127807   4.821   1.525   3.128  0.4884 -0.3037 -0.1276
    1DIPC   GL227808   4.616   1.641   3.106 -0.3056 -0.0254 -0.0635
    1DIPC   C1A27809   4.724   1.301   3.512 -0.1178 -0.1679 -0.1315
    1DIPC   D2A27810   4.560   1.117   3.834 -0.0130  0.0113  0.1742
    1DIPC   D3A27811   4.758   1.175   4.173  0.1512 -0.3726  0.0249
    1DIPC   C4A27812   4.803   1.500   4.430  0.2133 -0.0224  0.0428
    1DIPC   C1B27813   4.371   1.802   3.385 -0.3399 -0.0327  0.0842
    1DIPC   D2B27814   4.071   2.149   3.504  0.2193 -0.0251 -0.2320
    1DIPC   D3B27815   3.788   2.176   3.816  0.0297  0.2161 -0.1251
    1DIPC   C4B27816   3.472   2.461   3.899  0.0805  0.2208  0.0932
    1DIPC   NC327817   9.304   3.692   3.665  0.2529 -0.1830 -0.1561
    1DIPC   PO427818   9.601   3.410   3.658 -0.1804  0.1373  0.1838
    1DIPC   GL127819   9.292   3.231   3.903  0.0286 -0.2354 -0.0013
    1DIPC   GL227820   9.306   3.358   4.119  0.2361  0.3351  0.2266
    1DIPC   C1A27821   9.476   2.931   4.220 -0.0055 -0.0834 -0.3633
    1DIPC   D2A27822   9.594   2.832   4.673  0.0357  0.1204  0.0030
    1DIPC   D3A27823   9.151   3.088   4.569 -0.1145 -0.0498 -0.4061
    1DIPC   C4A27824   9.200   3.363   4.913  0.1940  0.0732  0.0154
    1DIPC   C1B27825   8.758   3.284   4.224 -0.0613  0.4170  0.0796
    1DIPC   D2B27826   8.396   3.073   4.264  0.1236 -0.2217  0.0789
    1DIPC   D3B27827   8.371   3.254   4.671  0.1087 -0.1635  0.0106
    1DIPC   C4B27828   8.645   3.203   4.994 -0.2502  0.2544 -0.0225
    1DIPC   NC327829   0.481  18.951   2.489 -0.1183  0.2775 -0.1666
    1DIPC   PO427830   0.030  19.109   2.421 -0.4379  0.2146  0.0760
    1DIPC   GL127831   0.176  18.949   2.906  0.1332  0.0867  0.0148
    1DIPC   GL227832   0.326  18.754   3.018 -0.1898 -0.0850 -0.0620
    1DIPC   C1A27833  29.798  18.990   3.302  0.0628 -0.0412  0.0859
    1DIPC   D2A27834  29.407  19.104   3.499 -0.0961 -0.0422 -0.1447
    1DIPC   D3A27835  29.332  19.028   3.971 -0.0758 -0.1003  0.1960
    1DIPC   C4A27836  29.002  18.916   4.173 -0.0688  0.0767 -0.0201
    1DIPC   C1B27837   0.353  18.735   3.439 -0.1161 -0.1982  0.5775
    1DIPC   D2B27838   0.399  18.790   3.783  0.0310  0.1086 -0.2147
    1DIPC   D3B27839   0.019  19.064   3.976  0.5932  0.1509  0.1805
    1DIPC   C4B27840  29.732  19.184   4.365  0.0983 -0.0393 -0.1486
    1DIPC   NC327841   6.144   7.857   2.905  0.0260 -0.1186  0.1014
    1DIPC   PO427842   6.579   7.691   2.766  0.1285  0.1956 -0.0881
    1DIPC   GL127843   6.577   7.917   3.201 -0.1315 -0.1665 -0.1958
    1DIPC   GL227844   6.362   7.782   3.377 -0.1251 -0.0185  0.3690
    1DIPC   C1A27845   6.406   8.162   3.649  0.2588 -0.0162 -0.3699
    1DIPC   D2A27846   6.455   8.039   4.126 -0.0400  0.0678  0.1995
    1DIPC   D3A27847   6.832   8.320   4.089 -0.0721  0.2796  0.3055
    1DIPC   C4A27848   6.971   8.696   4.394  0.2865  0.1304  0.2392
    1DIPC   C1B27849   6.621   7.730   3.778 -0.0720 -0.1005 -0.0605
    1DIPC   D2B27850   6.895   7.784   4.060 -0.3920 -0.0214 -0.0754
    1DIPC   D3B27851   6.698   7.559   4.308 -0.1362 -0.0664 -0.2768
    1DIPC   C4B27852   6.881   7.354   4.576  0.2144  0.1672 -0.0709
    1DIPC   NC327853  13.116  29.489   3.182  0.3055 -0.3635  0.0268
    1DIPC   PO427854  13.496  29.363   3.281 -0.0079  0.0389 -0.2862
    1DIPC   GL127855  13.298  29.203   3.617  0.1319 -0.1369 -0.0607
    1DIPC   GL227856  13.289  29.036   4.001 -0.3626  0.0653 -0.1351
    1DIPC   C1A27857  12.953  28.770   3.602  0.3310 -0.0709  0.1441
    1DIPC   D2A27858  13.235  28.495   3.787  0.0517  0.0780  0.1962
    1DIPC   D3A27859  13.075  28.113   3.947  0.0870 -0.1989  0.0928
    1DIPC   C4A27860  12.758  28.017   4.290  0.0535 -0.3631 -0.1601
    1DIPC   C1B27861  13.546  28.831   4.349  0.0831 -0.0628 -0.0903
    1DIPC   D2B27862  13.775  28.554   4.609 -0.2114  0.0984 -0.0059
    1DIPC   D3B27863  14.195  28.544   4.674 -0.1044  0.0431  0.0533
    1DIPC   C4B27864  14.407  28.368   5.012 -0.2658 -0.1948 -0.2446
    1DIPC   NC327865  24.894  25.192   3.065 -0.0467  0.1286  0.1351
    1DIPC   PO427866  25.258  25.492   3.121 -0.2366 -0.2305  0.2047
    1DIPC   GL127867  25.274  25.850   3.413 -0.2341  0.0520  0.3454
    1DIPC   GL227868  25.458  25.772   3.701  0.0149 -0.2348  0.1406
    1DIPC   C1A27869  25.230  26.292   3.608  0.1868  0.0174  0.0051
    1DIPC   D2A27870  25.056  26.741   3.620  0.1099  0.2946 -0.3674
    1DIPC   D3A27871  24.762  26.996   3.960 -0.0500 -0.1592 -0.1238
    1DIPC   C4A27872  24.891  27.128   4.268  0.2949  0.2692 -0.0319
    1DIPC   C1B27873  25.462  26.005   4.079 -0.3091 -0.0837 -0.2699
    1DIPC   D2B27874  25.490  26.034   4.445  0.1376 -0.0892  0.0468
    1DIPC   D3B27875  25.019  26.108   4.358 -0.1810  0.0170  0.3884
    1DIPC   C4B27876  24.641  25.831   4.597  0.2441 -0.0665 -0.0426
    1DIPC   NC327877  11.116   1.621   3.879  0.1176  0.0432 -0.0084
    1DIPC   PO427878  10.908   1.640   3.569 -0.0591  0.1370  0.0185
    1DIPC   GL127879  10.562   1.460   3.864 -0.2002 -0.1100 -0.1213
    1DIPC   GL227880  10.612   1.566   4.089 -0.1205 -0.2649 -0.2257
    1DIPC   C1A27881  10.143   1.435   4.047  0.1583  0.2029  0.1201
    1DIPC   D2A27882   9.824   1.786   4.156 -0.0130  0.3523  0.2086
    1DIPC   D3A27883   9.672   1.334   4.123  0.1266  0.1170  0.1818
    1DIPC   C4A27884   9.658   1.119   4.507  0.3308 -0.3517  0.2940
    1DIPC   C1B27885  10.655   1.267   4.367  0.4691 -0.1228 -0.0859
    1DIPC   D2B27886  10.578   1.161   4.848 -0.0275 -0.1077  0.1564
    1DIPC   D3B27887  10.172   1.291   4.570 -0.0247 -0.0485 -0.1139
    1DIPC   C4B27888   9.756   1.598   4.662  0.1813  0.1055  0.1848
    1DIPC   NC327889  27.063  28.521   2.794  0.0125  0.1355  0.0015
    1DIPC   PO427890  27.318  28.301   2.776  0.1774  0.2951 -0.1683
    1DIPC   GL127891  27.688  28.082   3.121  0.0268  0.1859 -0.1597
    1DIPC   GL227892  27.728  28.210   3.382 -0.2023  0.1858  0.0517
    1DIPC   C1A27893  28.094  27.908   3.414 -0.2620 -0.0894 -0.1253
    1DIPC   D2A27894  28.425  28.088   3.609 -0.0260  0.0620  0.0167
    1DIPC   D3A27895  28.207  28.477   3.683  0.1206 -0.2702  0.3886
    1DIPC   C4A27896  28.092  28.726   3.946  0.2398  0.1290  0.0292
    1DIPC   C1B27897  27.600  28.454   3.735  0.0946 -0.1089 -0.1572
    1DIPC   D2B27898  27.426  28.214   4.097 -0.2325  0.1890 -0.2883
    1DIPC   D3B27899  27.724  28.608   4.224  0.1253 -0.0311  0.0042
    1DIPC   C4B27900  27.524  28.920   4.381 -0.1452 -0.3359  0.2378
    1DIPC   NC327901   8.325  12.095   2.009 -0.0744  0.2418  0.1590
    1DIPC   PO427902   8.587  12.114   2.312 -0.0571  0.1084  0.0217
    1DIPC   GL127903   8.653  12.138   2.800 -0.2829  0.2680 -0.0880
    1DIPC   GL227904   8.662  11.954   3.110  0.4430  0.0477  0.0912
    1DIPC   C1A27905   8.614  12.516   3.120 -0.1106  0.3217  0.0824
    1DIPC   D2A27906   8.552  12.845   3.420  0.1942  0.3789 -0.0521
    1DIPC   D3A27907   8.216  13.057   3.625 -0.1240 -0.1004  0.1682
    1DIPC   C4A27908   8.272  13.382   4.043  0.1111 -0.5544  0.0430
    1DIPC   C1B27909   8.521  12.190   3.485  0.3330  0.0707  0.3071
    1DIPC   D2B27910   8.491  12.483   3.743 -0.1989 -0.2630  0.1764
    1DIPC   D3B27911   8.687  12.465   4.178 -0.0233  0.4221  0.2322
    1DIPC   C4B27912   8.529  12.418   4.578 -0.3942 -0.1404 -0.2898
    1DIPC   NC327913  24.613  29.739   3.092  0.3293 -0.0322 -0.3365
    1DIPC   PO427914  24.774   0.231   3.440  0.4970  0.4944  0.1084
    1DIPC   GL127915  25.029   0.243   3.898 -0.2868 -0.0369 -0.5757
    1DIPC   GL227916  24.922  29.809   4.042  0.2764 -0.0946  0.0125
    1DIPC   C1A27917  25.284   0.278   4.295 -0.1024  0.1451 -0.1084
    1DIPC   D2A27918  25.585   0.085   4.587  0.1737  0.3029 -0.1917
    1DIPC   D3A27919  26.005   0.133   4.567  0.0771  0.4044 -0.0007
    1DIPC   C4A27920  26.220  29.670   4.749  0.0377 -0.1632 -0.1022
    1DIPC   C1B27921  25.408  29.798   3.985  0.0516 -0.2662 -0.1124
    1DIPC   D2B27922  25.773  29.596   4.192  0.0255  0.2498 -0.3912
    1DIPC   D3B27923  25.819  29.472   4.658 -0.1865  0.3230  0.0287
    1DIPC   C4B27924  25.824  29.698   5.065  0.1681 -0.0169  0.3281
    1DIPC   NC327925   9.942  29.534   2.935 -0.1499 -0.0750  0.1975
    1DIPC   PO427926  10.320   0.020   3.047 -0.1159  0.3152 -0.1465
    1DIPC   GL127927  10.179   0.293   3.351  0.1284 -0.1925 -0.5958
    1DIPC   GL227928  10.459   0.279   3.568  0.2850  0.1752 -0.1698
    1DIPC   C1A27929  10.059   0.429   3.852  0.0459  0.2367  0.1361
    1DIPC   D2A27930  10.144   0.314   4.316  0.1447 -0.0723 -0.2268
    1DIPC   D3A27931   9.899  29.746   4.473  0.3621 -0.0466 -0.3292
    1DIPC   C4A27932   9.953  29.450   4.206  0.2818  0.3954 -0.1010
    1DIPC   C1B27933  10.568   0.374   3.978 -0.1646 -0.0988 -0.1449
    1DIPC   D2B27934  10.912   0.102   4.207 -0.2485 -0.1019  0.1515
    1DIPC   D3B27935  10.569   0.274   4.572 -0.2170  0.0114  0.3309
    1DIPC   C4B27936  10.684   0.624   4.949  0.1073 -0.0353  0.1390
    1DIPC   NC327937  27.708  15.583   2.948 -0.2707 -0.1508 -0.0062
    1DIPC   PO427938  27.922  15.279   2.804 -0.2373  0.2820 -0.1912
    1DIPC   GL127939  27.917  15.122   3.205  0.2454 -0.2722 -0.2430
    1DIPC   GL227940  28.252  15.067   3.227  0.0405 -0.1939 -0.0002
    1DIPC   C1A27941  27.976  15.218   3.575  0.1499 -0.0712 -0.2057
    1DIPC   D2A27942  27.855  15.292   4.059  0.1938 -0.0297  0.2532
    1DIPC   D3A27943  27.416  15.099   3.819 -0.2177  0.1087  0.1615
    1DIPC   C4A27944  27.429  14.994   3.415  0.1708 -0.0352  0.1484
    1DIPC   C1B27945  28.657  15.241   3.283  0.0680  0.3449 -0.0463
    1DIPC   D2B27946  29.075  15.386   3.506  0.5402 -0.0112  0.4158
    1DIPC   D3B27947  29.124  15.270   3.902 -0.0585  0.0065  0.2183
    1DIPC   C4B27948  29.010  14.807   3.998  0.1004  0.1636  0.2034
    1DIPC   NC327949  15.064  26.596   2.364 -0.0905 -0.3014 -0.0690
    1DIPC   PO427950  14.988  26.197   2.179 -0.0231  0.0451  0.2566
    1DIPC   GL127951  15.042  26.186   2.663 -0.1128 -0.2020  0.1464
    1DIPC   GL227952  15.221  26.419   2.829 -0.1803  0.2536  0.1430
    1DIPC   C1A27953  14.842  26.141   3.124 -0.1306  0.1771 -0.2074
    1DIPC   D2A27954  15.003  26.356   3.465 -0.2348 -0.0909  0.4023
    1DIPC   D3A27955  15.105  26.242   3.980 -0.2196 -0.3609 -0.0324
    1DIPC   C4A27956  15.119  25.846   4.062  0.2198  0.2418 -0.1800
    1DIPC   C1B27957  15.415  26.145   3.177  0.0950 -0.1381  0.3324
    1DIPC   D2B27958  15.390  26.012   3.631 -0.2703  0.1442 -0.2663
    1DIPC   D3B27959  14.916  25.895   3.558  0.3703 -0.0291  0.0450
    1DIPC   C4B27960  14.563  25.697   3.285  0.0272  0.3743  0.1683
    1DIPC   NC327961  15.355  16.170   2.335  0.1207  0.1163  0.1345
    1DIPC   PO427962  15.677  15.930   2.142 -0.3003 -0.0004 -0.4733
    1DIPC   GL127963  15.628  15.826   2.578 -0.0958  0.0293  0.0729
    1DIPC   GL227964  15.864  15.670   2.906 -0.2016  0.1838 -0.1090
    1DIPC   C1A27965  15.360  15.651   2.808  0.1805 -0.1624  0.0654
    1DIPC   D2A27966  15.014  15.421   2.938 -0.0291 -0.0135 -0.0164
    1DIPC   D3A27967  14.594  15.466   3.117 -0.2393 -0.2422  0.1543
    1DIPC   C4A27968  14.331  15.799   3.192  0.0400 -0.0030 -0.4961
    1DIPC   C1B27969  15.928  16.132   3.064 -0.0167  0.0232  0.0518
    1DIPC   D2B27970  15.867  16.309   3.528 -0.0616 -0.0220 -0.2954
    1DIPC   D3B27971  15.719  16.640   3.722 -0.0987 -0.0140 -0.1160
    1DIPC   C4B27972  15.802  17.086   3.921 -0.2357  0.0229  0.0632
    1DIPC   NC327973  26.848   1.417   2.561  0.1289  0.0067  0.0922
    1DIPC   PO427974  27.132   1.724   2.755 -0.3363  0.0036 -0.1420
    1DIPC   GL127975  27.137   1.846   3.213  0.1345  0.1903 -0.3325
    1DIPC   GL227976  27.528   1.971   3.345 -0.2041  0.0465  0.2404
    1DIPC   C1A27977  27.156   1.786   3.672  0.0128 -0.2696  0.0530
    1DIPC   D2A27978  27.202   1.943   4.092  0.3186  0.0254 -0.1111
    1DIPC   D3A27979  27.152   1.959   4.541 -0.1708 -0.2022 -0.1644
    1DIPC   C4A27980  27.101   2.350   4.727 -0.1287 -0.3838 -0.1674
    1DIPC   C1B27981  28.020   2.099   3.536  0.3048 -0.0166  0.0005
    1DIPC   D2B27982  28.487   1.862   3.548 -0.1643 -0.0156 -0.0571
    1DIPC   D3B27983  28.639   1.974   3.931 -0.0596 -0.1128 -0.0276
    1DIPC   C4B27984  28.586   1.868   4.383  0.1260 -0.2059  0.2767
    1DIPC   NC327985   4.858  26.438   2.034 -0.0267 -0.0319  0.1555
    1DIPC   PO427986   4.532  26.804   2.108 -0.0890 -0.0428  0.1106
    1DIPC   GL127987   4.060  26.849   2.334 -0.0359  0.1883 -0.1294
    1DIPC   GL227988   3.758  26.550   2.484 -0.1559 -0.2258 -0.2523
    1DIPC   C1A27989   3.731  27.068   2.634 -0.0941  0.0764 -0.1775
    1DIPC   D2A27990   3.615  27.346   3.027  0.1295  0.1641  0.0718
    1DIPC   D3A27991   3.920  26.959   3.124  0.0199 -0.0099 -0.0779
    1DIPC   C4A27992   4.238  26.765   2.903 -0.0710 -0.2389  0.1979
    1DIPC   C1B27993   3.828  26.466   2.896  0.0859  0.1001 -0.0597
    1DIPC   D2B27994   4.080  26.256   3.120  0.1173  0.0115 -0.0764
    1DIPC   D3B27995   4.166  26.563   3.453  0.1602 -0.1105 -0.0515
    1DIPC   C4B27996   4.408  26.464   3.820  0.0804  0.0063 -0.2104
    1DIPC   NC327997   3.655  26.469   1.603  0.0776  0.0290  0.1743
    1DIPC   PO427998   3.708  26.258   2.119  0.0386 -0.1086  0.1338
    1DIPC   GL127999   3.635  26.088   2.415 -0.1019 -0.0601 -0.0956
    1DIPC   GL228000   3.942  25.975   2.616  0.2567 -0.0806  0.1518
    1DIPC   C1A28001   3.473  26.115   2.859 -0.0981  0.2133 -0.1958
    1DIPC   D2A28002   3.358  25.924   3.173  0.0383 -0.0354 -0.1745
    1DIPC   D3A28003   3.682  26.057   3.383  0.0895 -0.3026  0.3590
    1DIPC   C4A28004   3.589  26.073   3.767 -0.3044  0.1944  0.4285
    1DIPC   C1B28005   3.964  25.790   3.011  0.0582 -0.1639  0.3413
    1DIPC   D2B28006   3.687  25.536   3.105  0.2115  0.0551 -0.0085
    1DIPC   D3B28007   3.698  25.115   3.423 -0.3354  0.0082  0.1222
    1DIPC   C4B28008   3.670  25.126   3.753 -0.3053 -0.1577  0.2005
    1DIPC   NC328009  16.285  21.741   1.461  0.0141  0.0409 -0.3104
    1DIPC   PO428010  16.284  22.146   1.305  0.1028  0.0099  0.1203
    1DIPC   GL128011  16.391  22.459   1.641  0.1096 -0.1699  0.0189
    1DIPC   GL228012  16.368  22.439   1.955  0.1967 -0.3387 -0.1378
    1DIPC   C1A28013  16.510  22.894   1.858 -0.1015  0.0445  0.2902
    1DIPC   D2A28014  16.594  23.348   1.878  0.3361  0.3625  0.0168
    1DIPC   D3A28015  16.470  23.741   1.959  0.0107 -0.2805 -0.2168
    1DIPC   C4A28016  16.364  24.174   2.120 -0.0029  0.0734  0.0324
    1DIPC   C1B28017  16.430  22.139   2.278 -0.4840  0.2969 -0.2212
    1DIPC   D2B28018  16.232  21.791   2.424 -0.2571 -0.3200  0.2562
    1DIPC   D3B28019  16.148  22.053   2.776 -0.0404  0.3637  0.1758
    1DIPC   C4B28020  15.844  22.021   3.130  0.1323  0.2883 -0.0030
    1DIPC   NC328021   9.919  19.932   2.377  0.2233  0.2103 -0.4983
    1DIPC   PO428022  10.274  19.756   2.591 -0.0905  0.2523  0.2080
    1DIPC   GL128023  10.415  19.852   2.951 -0.1919 -0.1144 -0.0488
    1DIPC   GL228024  10.742  19.743   2.854 -0.1764 -0.0105  0.0564
    1DIPC   C1A28025  10.621  19.991   3.343  0.1816 -0.0517  0.1868
    1DIPC   D2A28026  10.930  20.005   3.605  0.1825  0.0376  0.0881
    1DIPC   D3A28027  11.384  19.974   3.460 -0.1264  0.1192  0.1429
    1DIPC   C4A28028  11.687  19.662   3.490  0.1800  0.1784  0.2179
    1DIPC   C1B28029  11.002  19.932   3.022  0.1880  0.2127 -0.1694
    1DIPC   D2B28030  11.007  20.227   3.139  0.2676 -0.2727 -0.1191
    1DIPC   D3B28031  11.311  20.359   3.193  0.1399 -0.1395 -0.2309
    1DIPC   C4B28032  11.526  20.164   2.892  0.1712 -0.5321 -0.0657
    1DIPC   NC328033   2.902  24.679   1.845 -0.0223 -0.2050  0.1886
    1DIPC   PO428034   2.863  24.550   2.226 -0.1307  0.0326 -0.2326
    1DIPC   GL128035   2.992  24.646   2.602 -0.0037  0.2352 -0.1256
    1DIPC   GL228036   3.270  24.741   2.626 -0.0109 -0.0402 -0.1792
    1DIPC   C1A28037   3.022  24.652   3.049  0.2969  0.2225 -0.0605
    1DIPC   D2A28038   2.717  24.557   3.284  0.0432  0.3234 -0.3428
    1DIPC   D3A28039   2.528  24.754   2.973  0.2306  0.0567 -0.0539
    1DIPC   C4A28040   2.197  25.003   3.054  0.5347  0.0610  0.1493
    1DIPC   C1B28041   3.480  25.101   2.807  0.0396  0.0852  0.1614
    1DIPC   D2B28042   3.253  25.058   3.222 -0.1972  0.0742  0.5101
    1DIPC   D3B28043   3.233  25.384   3.389  0.3558 -0.0851 -0.3050
    1DIPC   C4B28044   3.482  25.631   3.605 -0.4333 -0.0534 -0.1458
    1DIPC   NC328045   4.768  22.162   2.259  0.2679 -0.0503  0.1373
    1DIPC   PO428046   4.466  21.975   2.493 -0.0651  0.1635 -0.2063
    1DIPC   GL128047   4.625  22.229   2.834  0.1854  0.0416 -0.1866
    1DIPC   GL228048   4.263  22.144   2.938  0.2714  0.2897  0.1708
    1DIPC   C1A28049   4.548  22.474   3.161 -0.1490 -0.1447 -0.1126
    1DIPC   D2A28050   4.879  22.568   3.522  0.0415  0.3382  0.3325
    1DIPC   D3A28051   4.635  22.883   3.905  0.0933  0.0478  0.1204
    1DIPC   C4A28052   4.318  23.224   3.821  0.2456  0.2638  0.1653
    1DIPC   C1B28053   4.436  21.885   3.175  0.4686 -0.0399  0.2265
    1DIPC   D2B28054   4.778  21.689   3.399 -0.0133  0.3685  0.3484
    1DIPC   D3B28055   4.655  21.751   3.864  0.1105 -0.1654  0.0659
    1DIPC   C4B28056   4.295  21.574   4.077  0.0054 -0.0252  0.2159
    1DIPC   NC328057  22.471   2.344   3.516  0.0197 -0.0460 -0.1357
    1DIPC   PO428058  22.265   1.976   3.619 -0.1568  0.1564 -0.3250
    1DIPC   GL128059  22.220   1.859   4.027 -0.0326 -0.4157 -0.0994
    1DIPC   GL228060  22.047   1.524   4.079  0.0671  0.0765  0.0056
    1DIPC   C1A28061  21.961   1.835   4.477  0.0718  0.2282 -0.0865
    1DIPC   D2A28062  21.948   1.706   4.929 -0.0899 -0.1058  0.0988
    1DIPC   D3A28063  21.961   1.285   5.175 -0.0689  0.2262  0.2509
    1DIPC   C4A28064  22.236   0.907   5.090 -0.0934 -0.1099 -0.0969
    1DIPC   C1B28065  22.346   1.221   4.130  0.1255 -0.1321 -0.0447
    1DIPC   D2B28066  22.575   0.856   4.227 -0.0868 -0.1624 -0.1108
    1DIPC   D3B28067  22.616   0.388   4.327  0.1906  0.0633  0.3386
    1DIPC   C4B28068  22.705   0.217   4.748  0.0282  0.1083  0.2334
    1DIPC   NC328069  12.485  19.801   1.351 -0.1075  0.5783 -0.1590
    1DIPC   PO428070  12.149  20.016   1.621  0.1441  0.1676 -0.0613
    1DIPC   GL128071  12.342  20.185   2.046  0.0287  0.1099 -0.1244
    1DIPC   GL228072  12.130  20.384   2.324  0.0748 -0.0336 -0.1252
    1DIPC   C1A28073  12.766  20.283   2.220  0.0690 -0.3770 -0.0293
    1DIPC   D2A28074  12.992  20.274   2.519 -0.1447 -0.1456 -0.3145
    1DIPC   D3A28075  13.405  20.134   2.759 -0.2572 -0.0968  0.0278
    1DIPC   C4A28076  13.832  20.066   2.796  0.2385 -0.1890  0.0108
    1DIPC   C1B28077  12.488  20.295   2.649  0.2005  0.0118  0.3077
    1DIPC   D2B28078  12.818  20.337   2.967 -0.3081 -0.1069  0.0715
    1DIPC   D3B28079  13.148  20.554   3.127  0.0496 -0.1868  0.3072
    1DIPC   C4B28080  13.239  20.521   3.587 -0.1867 -0.4421 -0.1509
    1DIPC   NC328081   8.942  23.133   2.096  0.1466 -0.4768 -0.1515
    1DIPC   PO428082   9.143  23.418   1.772 -0.2367  0.3173  0.1426
    1DIPC   GL128083   9.057  23.640   2.168 -0.2109 -0.0478 -0.1534
    1DIPC   GL228084   9.208  23.596   2.502  0.2481  0.1239 -0.0926
    1DIPC   C1A28085   8.859  23.920   2.578  0.1953  0.1945  0.1877
    1DIPC   D2A28086   8.385  24.193   2.675 -0.4541  0.2422 -0.0057
    1DIPC   D3A28087   8.243  23.733   2.848 -0.0197  0.1622 -0.2456
    1DIPC   C4A28088   7.992  23.398   2.571 -0.0572 -0.2173 -0.1006
    1DIPC   C1B28089   9.344  23.889   2.788  0.1851 -0.0820 -0.3106
    1DIPC   D2B28090   9.453  24.069   3.324 -0.4842 -0.0786  0.0824
    1DIPC   D3B28091   9.640  23.717   3.471 -0.2723 -0.1447  0.0724
    1DIPC   C4B28092   9.432  23.670   3.900  0.1015 -0.2173  0.2749
    1DIPC   NC328093   7.764  10.859   2.740  0.1131  0.1092 -0.1057
    1DIPC   PO428094   7.860  10.768   3.248  0.2923  0.1776  0.1519
    1DIPC   GL128095   7.838  11.154   3.492  0.0722  0.2109  0.1329
    1DIPC   GL228096   7.762  11.147   3.830 -0.5327  0.0209 -0.0265
    1DIPC   C1A28097   7.688  11.562   3.503  0.2329 -0.0564 -0.0956
    1DIPC   D2A28098   7.529  11.870   3.753  0.0719  0.3709  0.2522
    1DIPC   D3A28099   7.589  12.210   3.445 -0.2266  0.0417  0.2461
    1DIPC   C4A28100   7.328  12.522   3.646 -0.1012 -0.0271  0.3738
    1DIPC   C1B28101   8.101  11.100   4.032  0.1078  0.3086 -0.2442
    1DIPC   D2B28102   8.505  11.090   4.062  0.1995 -0.1710  0.0867
    1DIPC   D3B28103   8.780  11.435   4.081 -0.1987  0.0262 -0.1149
    1DIPC   C4B28104   9.208  11.370   4.205 -0.0375  0.0787 -0.1195
    1DIPC   NC328105  10.961   0.912   3.140 -0.0567  0.3034  0.2076
    1DIPC   PO428106  11.155   1.163   3.531  0.0904 -0.2230  0.0449
    1DIPC   GL128107  11.403   1.191   3.995 -0.1190 -0.1244 -0.3030
    1DIPC   GL228108  11.749   1.284   4.112 -0.1121  0.0654 -0.2143
    1DIPC   C1A28109  11.344   1.076   4.339  0.2208  0.0464  0.2089
    1DIPC   D2A28110  11.399   1.008   4.731  0.2590 -0.1279  0.1872
    1DIPC   D3A28111  11.186   1.260   5.126  0.1493 -0.1309  0.0168
    1DIPC   C4A28112  10.788   1.011   5.246  0.0496  0.0455 -0.3100
    1DIPC   C1B28113  11.870   0.834   4.445 -0.0099 -0.1117  0.2204
    1DIPC   D2B28114  11.912   0.693   4.860  0.0268  0.2385  0.1396
    1DIPC   D3B28115  11.523   0.677   5.068 -0.0002 -0.1808 -0.1129
    1DIPC   C4B28116  11.165   0.769   5.032 -0.2481  0.0302  0.4152
    1DIPC   NC328117  26.296  23.566   3.363  0.2735  0.0045 -0.0789
    1DIPC   PO428118  26.662  23.568   3.003  0.0233  0.0178  0.3356
    1DIPC   GL128119  26.949  23.456   3.337 -0.0468 -0.0127 -0.3731
    1DIPC   GL228120  27.125  23.111   3.260 -0.2902 -0.2435 -0.2338
    1DIPC   C1A28121  27.228  23.487   3.742 -0.0869  0.2299  0.0952
    1DIPC   D2A28122  27.641  23.281   3.944 -0.1169 -0.0527  0.1638
    1DIPC   D3A28123  27.708  23.014   4.278  0.3339 -0.1324  0.1843
    1DIPC   C4A28124  28.050  23.007   4.860  0.0170  0.1771 -0.1474
    1DIPC   C1B28125  26.916  23.062   3.654 -0.0055  0.0097 -0.0702
    1DIPC   D2B28126  26.803  23.289   3.917 -0.0188  0.2045 -0.1612
    1DIPC   D3B28127  26.595  23.643   3.726 -0.0432 -0.0556 -0.0725
    1DIPC   C4B28128  26.595  24.096   3.826  0.0352  0.0116  0.1460
    1DIPC   NC328129  17.208  26.759   2.585  0.0345 -0.2814 -0.0756
    1DIPC   PO428130  17.595  26.917   2.468 -0.1968 -0.3153 -0.3426
    1DIPC   GL128131  17.833  26.705   2.882 -0.1076 -0.2808  0.1751
    1DIPC   GL228132  17.640  26.366   3.009 -0.0918  0.3230 -0.1902
    1DIPC   C1A28133  17.925  26.607   3.289  0.2572 -0.0873  0.2464
    1DIPC   D2A28134  17.685  26.649   3.681  0.4563 -0.1655 -0.1452
    1DIPC   D3A28135  17.956  26.359   3.819 -0.4143 -0.2258 -0.2157
    1DIPC   C4A28136  18.312  26.320   3.576 -0.3215  0.3395 -0.0227
    1DIPC   C1B28137  17.239  26.231   3.247 -0.0269 -0.2571  0.0178
    1DIPC   D2B28138  16.866  26.045   3.444  0.1538 -0.2054  0.2902
    1DIPC   D3B28139  17.066  25.787   3.772  0.0478 -0.3849 -0.1492
    1DIPC   C4B28140  17.094  25.402   3.935 -0.0844  0.3205 -0.1993
    1DIPC   NC328141  13.203  12.686   2.200  0.4721  0.0405 -0.0107
    1DIPC   PO428142  13.585  12.836   2.398  0.0312  0.2068  0.0590
    1DIPC   GL128143  13.380  12.794   2.719 -0.1403 -0.1725 -0.0831
    1DIPC   GL228144  13.631  12.856   2.928  0.0385  0.0528  0.3253
    1DIPC   C1A28145  13.211  12.766   3.205  0.0078 -0.0455 -0.0736
    1DIPC   D2A28146  13.050  12.572   3.642 -0.0541 -0.1847  0.2348
    1DIPC   D3A28147  13.180  12.270   3.334  0.0731 -0.0836 -0.0826
    1DIPC   C4A28148  13.520  12.327   3.023  0.3834  0.1468  0.0447
    1DIPC   C1B28149  13.604  12.981   3.299  0.0926 -0.3376  0.1477
    1DIPC   D2B28150  13.370  12.997   3.669  0.0178 -0.1202  0.0452
    1DIPC   D3B28151  13.151  13.187   3.868  0.0241 -0.1792 -0.1465
    1DIPC   C4B28152  13.213  13.379   4.307 -0.1911  0.0083  0.1946
    1DIPC   NC328153  21.160  17.884   1.981  0.1185  0.1081 -0.1450
    1DIPC   PO428154  21.347  17.455   1.798  0.1169 -0.3109 -0.0833
    1DIPC   GL128155  21.338  17.209   2.209 -0.1928  0.0429 -0.1216
    1DIPC   GL228156  21.670  17.139   2.219 -0.1189  0.1769  0.0097
    1DIPC   C1A28157  21.289  17.364   2.611  0.0319  0.1802  0.0617
    1DIPC   D2A28158  20.945  17.534   2.879  0.1494 -0.3130 -0.1088
    1DIPC   D3A28159  20.821  17.109   2.972  0.1312  0.0178  0.2480
    1DIPC   C4A28160  20.941  17.112   3.352  0.1536  0.2145 -0.2019
    1DIPC   C1B28161  21.896  17.091   2.542  0.0096 -0.1718 -0.2666
    1DIPC   D2B28162  22.182  17.132   2.957  0.2045  0.0949 -0.0297
    1DIPC   D3B28163  22.065  16.911   3.240 -0.1391  0.2301  0.2022
    1DIPC   C4B28164  22.191  16.818   3.568  0.2765 -0.1276  0.0601
    1DIPC   NC328165  19.283  16.920   1.697  0.0493  0.1316  0.2702
    1DIPC   PO428166  19.509  17.223   1.946 -0.1637 -0.2894 -0.2941
    1DIPC   GL128167  19.608  17.118   2.396  0.0200  0.2212 -0.4279
    1DIPC   GL228168  19.323  17.144   2.621 -0.0901 -0.0171 -0.0373
    1DIPC   C1A28169  19.778  17.075   2.783  0.0318  0.1162  0.0938
    1DIPC   D2A28170  19.541  17.192   3.186 -0.1135 -0.1910  0.0586
    1DIPC   D3A28171  19.699  17.573   3.434  0.0952 -0.2048  0.1849
    1DIPC   C4A28172  20.019  17.361   3.734  0.1058  0.2364  0.0056
    1DIPC   C1B28173  19.061  17.223   3.017 -0.1322  0.1844  0.0416
    1DIPC   D2B28174  18.988  17.465   3.357 -0.0558 -0.1180  0.0141
    1DIPC   D3B28175  19.267  17.654   3.223 -0.0742 -0.0709 -0.0548
    1DIPC   C4B28176  19.454  18.021   3.352  0.3306  0.0195 -0.0711
    1DIPC   NC328177  18.313  29.185   3.343  0.0858  0.0317  0.2315
    1DIPC   PO428178  18.054  29.463   3.533  0.0345 -0.2076  0.2591
    1DIPC   GL128179  18.095  29.298   3.873  0.2416  0.0057 -0.0640
    1DIPC   GL228180  18.200  29.468   4.137  0.6426 -0.2336 -0.1483
    1DIPC   C1A28181  17.866  29.087   4.171  0.3405  0.1672  0.1321
    1DIPC   D2A28182  17.877  28.751   4.224  0.0418  0.1707  0.1547
    1DIPC   D3A28183  17.838  28.460   4.363 -0.2571  0.4384 -0.0078
    1DIPC   C4A28184  17.893  28.371   4.800  0.1663 -0.1949 -0.1048
    1DIPC   C1B28185  18.325  29.239   4.444  0.0287  0.1568  0.0195
    1DIPC   D2B28186  18.519  29.158   4.755 -0.0429  0.0416  0.0006
    1DIPC   D3B28187  18.643  29.430   5.053 -0.2245  0.0004  0.1856
    1DIPC   C4B28188  18.817  29.319   5.438  0.3957  0.0793  0.3544
    1DIPC   NC328189  11.339  17.508   2.311  0.0903 -0.2190  0.1604
    1DIPC   PO428190  11.870  17.492   2.346  0.2920 -0.1367 -0.2230
    1DIPC   GL128191  11.868  17.542   2.849  0.0518 -0.1991 -0.1160
    1DIPC   GL228192  11.434  17.634   2.792 -0.0776  0.2871  0.1303
    1DIPC   C1A28193  12.202  17.618   3.131  0.1178 -0.0883 -0.0015
    1DIPC   D2A28194  12.515  17.424   3.311  0.4443 -0.2181  0.3013
    1DIPC   D3A28195  12.347  17.442   3.833  0.1727  0.1804  0.5752
    1DIPC   C4A28196  12.494  17.217   4.140 -0.1343  0.0167  0.3387
    1DIPC   C1B28197  11.548  17.771   3.198 -0.2355 -0.1066 -0.1530
    1DIPC   D2B28198  11.419  18.086   3.418  0.4697 -0.2416  0.0063
    1DIPC   D3B28199  11.460  18.107   3.910  0.2181  0.2457  0.0000
    1DIPC   C4B28200  11.777  18.401   4.196  0.1015  0.3681 -0.2945
    1DIPC   NC328201  20.978  26.126   2.572  0.1917 -0.0889  0.1049
    1DIPC   PO428202  21.030  25.699   2.612  0.1599 -0.2192  0.4190
    1DIPC   GL128203  20.869  25.557   3.037 -0.1311  0.2354 -0.1103
    1DIPC   GL228204  21.062  25.382   3.258 -0.1606  0.3198 -0.3669
    1DIPC   C1A28205  20.600  25.499   3.432  0.1598  0.1550  0.2620
    1DIPC   D2A28206  20.802  25.604   3.817  0.1381  0.0774  0.3271
    1DIPC   D3A28207  20.517  25.578   4.186  0.0516  0.1216  0.0686
    1DIPC   C4A28208  20.025  25.638   4.136  0.0634  0.1342 -0.0979
    1DIPC   C1B28209  20.983  25.157   3.577 -0.1475 -0.0895  0.2147
    1DIPC   D2B28210  20.843  24.918   3.929  0.1022  0.0415 -0.1908
    1DIPC   D3B28211  21.076  24.805   4.198 -0.0443 -0.1420  0.1038
    1DIPC   C4B28212  21.019  24.350   4.205 -0.2395 -0.1499  0.1628
    1DIPC   NC328213  28.536   2.972   2.873 -0.3445  0.2084  0.0062
    1DIPC   PO428214  28.469   3.302   3.062 -0.2911  0.2154 -0.1785
    1DIPC   GL128215  28.203   3.310   3.454  0.0621 -0.0605 -0.0000
    1DIPC   GL228216  28.562   3.319   3.570 -0.0810 -0.0969 -0.0394
    1DIPC   C1A28217  28.096   3.153   3.829  0.0176  0.2369  0.3066
    1DIPC   D2A28218  27.743   3.014   4.145 -0.2019 -0.0794  0.2621
    1DIPC   D3A28219  28.056   2.956   4.404  0.2194 -0.1415  0.0238
    1DIPC   C4A28220  28.363   3.149   4.536  0.0249 -0.1664 -0.1563
    1DIPC   C1B28221  28.498   3.336   4.090 -0.2427 -0.0074 -0.1488
    1DIPC   D2B28222  28.546   3.666   4.420  0.2969  0.2299 -0.2886
    1DIPC   D3B28223  28.857   3.355   4.659 -0.1366  0.0267  0.0494
    1DIPC   C4B28224  29.098   3.412   4.975  0.2035 -0.0056  0.0159
    1DIPC   NC328225  24.982  19.441   2.282  0.2683  0.0444 -0.1833
    1DIPC   PO428226  25.256  19.229   2.597  0.1108 -0.1480  0.2469
    1DIPC   GL128227  25.322  19.523   2.950 -0.0507 -0.0329 -0.3695
    1DIPC   GL228228  25.591  19.519   3.028 -0.1344  0.1075 -0.0233
    1DIPC   C1A28229  25.210  19.487   3.314  0.0850 -0.1423 -0.3863
    1DIPC   D2A28230  24.722  19.727   3.408  0.1458  0.0693 -0.2123
    1DIPC   D3A28231  24.445  19.391   3.203  0.2588  0.1152 -0.2651
    1DIPC   C4A28232  24.089  19.226   3.411 -0.0748 -0.2343 -0.0896
    1DIPC   C1B28233  25.647  19.697   3.428 -0.1844 -0.1574 -0.1175
    1DIPC   D2B28234  25.861  19.815   3.807  0.1682  0.0400  0.4365
    1DIPC   D3B28235  25.689  19.769   4.183  0.0677 -0.2212  0.1919
    1DIPC   C4B28236  25.781  20.044   4.472  0.2616  0.2411  0.0561
    1DIPC   NC328237   7.902  18.135   2.343 -0.3540  0.0649 -0.3656
    1DIPC   PO428238   7.962  17.734   2.469  0.0700  0.3956  0.1943
    1DIPC   GL128239   7.799  17.798   2.894  0.0315  0.0686 -0.2461
    1DIPC   GL228240   7.489  17.697   2.910 -0.0789 -0.4101  0.2258
    1DIPC   C1A28241   7.759  17.947   3.313  0.0159  0.1745 -0.1366
    1DIPC   D2A28242   7.619  18.159   3.674 -0.1424  0.0163  0.1234
    1DIPC   D3A28243   7.914  18.403   3.854  0.1536  0.1762 -0.0079
    1DIPC   C4A28244   7.887  18.457   4.385  0.0411  0.2336  0.2054
    1DIPC   C1B28245   7.250  17.745   3.256  0.0081 -0.0855 -0.0088
    1DIPC   D2B28246   7.414  17.694   3.671  0.1992  0.1052 -0.0284
    1DIPC   D3B28247   7.854  17.760   3.788 -0.0233  0.0669 -0.1512
    1DIPC   C4B28248   8.179  17.825   3.514 -0.0475 -0.2741 -0.0171
    1DIPC   NC328249   5.180  17.280   2.293  0.0182  0.1140  0.1416
    1DIPC   PO428250   5.364  17.255   2.681 -0.2157  0.2538 -0.0486
    1DIPC   GL128251   5.367  17.169   3.111 -0.1397 -0.1370 -0.1871
    1DIPC   GL228252   5.127  17.471   3.257  0.0951  0.2751 -0.0872
    1DIPC   C1A28253   5.708  17.220   3.525 -0.2294 -0.2634  0.0102
    1DIPC   D2A28254   6.064  16.970   3.675 -0.1900 -0.0352  0.0693
    1DIPC   D3A28255   6.218  16.810   4.067  0.0477 -0.0526 -0.0820
    1DIPC   C4A28256   6.652  16.801   4.156 -0.0249  0.2140  0.1454
    1DIPC   C1B28257   5.363  17.663   3.559 -0.0902 -0.2197  0.2065
    1DIPC   D2B28258   5.678  17.953   3.835 -0.0552  0.1029 -0.3811
    1DIPC   D3B28259   5.332  18.080   4.119  0.5693  0.1938 -0.0046
    1DIPC   C4B28260   5.225  18.419   4.468 -0.0524  0.0402  0.3388
    1DIPC   NC328261   2.426   3.901   2.844  0.1748 -0.3484 -0.0053
    1DIPC   PO428262   2.424   4.036   3.193 -0.1651  0.0517 -0.1985
    1DIPC   GL128263   2.611   4.045   3.618 -0.0537 -0.1382  0.2121
    1DIPC   GL228264   2.953   4.104   3.716  0.0397  0.2083 -0.0362
    1DIPC   C1A28265   2.652   4.306   4.010  0.0631 -0.3719 -0.0921
    1DIPC   D2A28266   2.600   4.485   4.400  0.3416  0.1139  0.1906
    1DIPC   D3A28267   2.261   4.614   4.690 -0.2314 -0.0414  0.0116
    1DIPC   C4A28268   2.178   4.299   4.934 -0.2873  0.1646 -0.1866
    1DIPC   C1B28269   2.945   4.024   4.261  0.0382  0.3963 -0.1892
    1DIPC   D2B28270   2.914   4.205   4.677  0.1146  0.0595 -0.1465
    1DIPC   D3B28271   2.886   4.604   4.908 -0.2451 -0.2578  0.1555
    1DIPC   C4B28272   3.110   4.456   5.239  0.2566 -0.3077 -0.1439
    1DIPC   NC328273   1.046   4.088   3.316  0.2168 -0.3415 -0.0754
    1DIPC   PO428274   1.422   4.318   3.320 -0.1222 -0.0608 -0.1168
    1DIPC   GL128275   1.407   4.250   3.775  0.0313  0.0898  0.1678
    1DIPC   GL228276   1.669   4.103   3.934  0.2559 -0.1933 -0.2512
    1DIPC   C1A28277   1.060   4.039   4.088  0.0121 -0.0590 -0.0624
    1DIPC   D2A28278   0.770   4.005   4.493 -0.3543 -0.0122 -0.1335
    1DIPC   D3A28279   0.825   4.407   4.651  0.1088 -0.0274  0.0112
    1DIPC   C4A28280   0.684   4.433   5.170  0.2120 -0.0343  0.0165
    1DIPC   C1B28281   1.484   4.255   4.370  0.3189 -0.1328  0.0208
    1DIPC   D2B28282   1.330   4.570   4.670  0.0368  0.2071 -0.1199
    1DIPC   D3B28283   1.161   4.281   5.024 -0.1404  0.1653  0.0195
    1DIPC   C4B28284   0.860   3.972   5.074  0.0433 -0.1555 -0.0970
    1DIPC   NC328285  22.877  28.383   3.387 -0.1331 -0.2794 -0.0988
    1DIPC   PO428286  22.992  27.944   3.289 -0.0747  0.2261  0.0193
    1DIPC   GL128287  22.935  27.933   3.650 -0.0146 -0.1207 -0.0999
    1DIPC   GL228288  23.212  27.920   3.818  0.2616 -0.3466  0.0168
    1DIPC   C1A28289  22.755  28.044   4.058  0.0718 -0.1824  0.0659
    1DIPC   D2A28290  22.556  28.288   4.288  0.1006  0.1543  0.1405
    1DIPC   D3A28291  22.511  27.860   4.437 -0.1702 -0.1068  0.2268
    1DIPC   C4A28292  22.180  27.674   4.558 -0.1086  0.1805 -0.0255
    1DIPC   C1B28293  23.297  27.995   4.216 -0.4324 -0.0304 -0.3166
    1DIPC   D2B28294  23.497  28.202   4.564 -0.0061  0.1787  0.1008
    1DIPC   D3B28295  23.845  28.430   4.758  0.0272 -0.2326 -0.0105
    1DIPC   C4B28296  23.805  28.800   4.999 -0.2793 -0.0971  0.2181
    1DIPC   NC328297   8.605  13.609   2.275  0.0103  0.1182  0.0021
    1DIPC   PO428298   8.397  13.444   2.635 -0.0244 -0.1267 -0.0921
    1DIPC   GL128299   8.265  13.621   2.993  0.3070 -0.0970 -0.0152
    1DIPC   GL228300   7.923  13.719   2.883  0.0899 -0.2244  0.0686
    1DIPC   C1A28301   8.233  13.940   3.256  0.1556 -0.2956  0.1215
    1DIPC   D2A28302   8.432  14.127   3.612  0.2065  0.2048  0.0204
    1DIPC   D3A28303   8.058  14.451   3.915  0.0720 -0.2186  0.0769
    1DIPC   C4A28304   7.743  14.197   4.135  0.1433  0.2132 -0.2436
    1DIPC   C1B28305   7.619  13.691   3.237  0.2423  0.1358 -0.0223
    1DIPC   D2B28306   7.383  13.417   3.504  0.4316 -0.2717 -0.2219
    1DIPC   D3B28307   7.293  13.301   3.974 -0.0941  0.2114  0.0859
    1DIPC   C4B28308   7.211  12.856   4.033 -0.3361 -0.0485 -0.2580
    1DIPC   NC328309   8.274   9.258   2.516  0.0940 -0.1054  0.4224
    1DIPC   PO428310   8.544   9.564   2.727 -0.3033  0.2103 -0.0650
    1DIPC   GL128311   8.691   9.121   2.943 -0.1478  0.0755  0.1810
    1DIPC   GL228312   9.004   9.187   2.882  0.0457  0.0534 -0.1767
    1DIPC   C1A28313   8.847   8.913   3.239 -0.1955 -0.0497 -0.3374
    1DIPC   D2A28314   8.825   8.827   3.739  0.0905 -0.0210  0.1278
    1DIPC   D3A28315   8.981   8.458   3.513 -0.1203 -0.0365 -0.5229
    1DIPC   C4A28316   8.687   8.029   3.486  0.1295  0.1238  0.3589
    1DIPC   C1B28317   9.075   9.299   3.365  0.2855 -0.1245 -0.1596
    1DIPC   D2B28318   8.961   9.334   3.865  0.1790 -0.0369  0.1007
    1DIPC   D3B28319   9.223   9.035   4.084  0.2342  0.1486  0.0029
    1DIPC   C4B28320   9.365   8.848   4.457 -0.3507 -0.0040  0.2558
    1DIPC   NC328321  13.153  23.538   1.619 -0.1727  0.0657  0.0909
    1DIPC   PO428322  12.847  23.640   1.976 -0.0120  0.3848 -0.2671
    1DIPC   GL128323  12.961  23.781   2.325  0.4211 -0.3754  0.2675
    1DIPC   GL228324  12.932  24.004   2.513  0.0429 -0.0736 -0.0918
    1DIPC   C1A28325  13.173  23.640   2.717 -0.0207  0.0868 -0.3603
    1DIPC   D2A28326  13.260  23.722   3.219 -0.1448  0.0003 -0.0374
    1DIPC   D3A28327  13.291  23.302   3.313 -0.2757  0.0316  0.1732
    1DIPC   C4A28328  13.586  23.170   3.621 -0.0766 -0.3108  0.1775
    1DIPC   C1B28329  12.739  23.848   2.938 -0.2441 -0.1874 -0.0803
    1DIPC   D2B28330  12.770  23.459   3.278 -0.0111 -0.1712  0.0336
    1DIPC   D3B28331  13.005  23.586   3.652  0.2405  0.0985 -0.1850
    1DIPC   C4B28332  13.120  24.031   3.713  0.1414 -0.0725 -0.3405
    1DIPC   NC328333   7.921   7.897   3.175  0.0008 -0.0644  0.3788
    1DIPC   PO428334   8.182   7.588   2.959 -0.4179  0.2712  0.0651
    1DIPC   GL128335   8.298   7.645   3.367 -0.0825  0.2040  0.1097
    1DIPC   GL228336   7.978   7.774   3.654 -0.0454  0.0705  0.2085
    1DIPC   C1A28337   8.519   7.653   3.743 -0.0464  0.2370  0.1949
    1DIPC   D2A28338   8.890   7.437   3.982 -0.0698  0.0808 -0.1866
    1DIPC   D3A28339   8.655   7.363   4.269  0.1585  0.1116 -0.0812
    1DIPC   C4A28340   8.428   7.580   4.603  0.0886  0.1650 -0.1404
    1DIPC   C1B28341   7.873   7.998   4.035 -0.2849 -0.1635  0.1346
    1DIPC   D2B28342   7.704   7.949   4.420  0.1416 -0.0084  0.2969
    1DIPC   D3B28343   7.940   7.646   4.549 -0.0701 -0.2984  0.2784
    1DIPC   C4B28344   7.800   7.351   4.784  0.0555  0.1920 -0.2017
    1DIPC   NC328345   5.973   8.622   3.052 -0.0162 -0.2508 -0.0115
    1DIPC   PO428346   5.759   8.141   3.111 -0.1750 -0.0955  0.0828
    1DIPC   GL128347   5.881   8.043   3.490  0.2089 -0.0646 -0.0586
    1DIPC   GL228348   5.860   8.123   3.810  0.1210 -0.1268  0.0944
    1DIPC   C1A28349   5.969   7.664   3.716  0.0554  0.2179 -0.1926
    1DIPC   D2A28350   6.114   7.518   4.150  0.2882 -0.1969  0.4225
    1DIPC   D3A28351   5.975   7.150   4.271 -0.4858 -0.5320 -0.1586
    1DIPC   C4A28352   5.952   6.693   4.374  0.1545 -0.2261  0.1110
    1DIPC   C1B28353   5.941   7.958   4.169 -0.1813 -0.1182 -0.1844
    1DIPC   D2B28354   5.865   8.117   4.596 -0.1138 -0.5053  0.1456
    1DIPC   D3B28355   5.971   8.100   5.051 -0.1043 -0.1665  0.2761
    1DIPC   C4B28356   6.079   8.347   5.399 -0.0650 -0.3044 -0.3984
    1DIPC   NC328357  15.689  10.220   3.029 -0.0499  0.0639  0.1039
    1DIPC   PO428358  15.390  10.466   2.792 -0.2364  0.2702  0.0013
    1DIPC   GL128359  15.384  10.638   3.171  0.0353 -0.0819 -0.1047
    1DIPC   GL228360  15.417  10.346   3.507 -0.0166 -0.0996  0.1129
    1DIPC   C1A28361  15.314  10.855   3.584  0.1118  0.0467 -0.2110
    1DIPC   D2A28362  15.260  11.011   3.977 -0.0119  0.1760  0.1896
    1DIPC   D3A28363  14.972  11.166   4.174  0.0145 -0.1194 -0.0742
    1DIPC   C4A28364  14.635  10.882   4.158  0.1548 -0.1140  0.2202
    1DIPC   C1B28365  15.321  10.457   3.844 -0.0830  0.2322 -0.1017
    1DIPC   D2B28366  15.380  10.221   4.243  0.2789 -0.2241 -0.0448
    1DIPC   D3B28367  15.109   9.985   4.406 -0.0975  0.2042  0.1548
    1DIPC   C4B28368  14.819  10.079   4.754 -0.1432 -0.0019  0.1430
    1DIPC   NC328369  13.995  19.840   1.274 -0.1874 -0.3084  0.1900
    1DIPC   PO428370  13.675  19.959   1.510 -0.1739  0.0689 -0.1454
    1DIPC   GL128371  13.267  20.045   1.853  0.0464  0.3110  0.1550
    1DIPC   GL228372  13.181  20.302   1.792  0.3933 -0.0714 -0.1578
    1DIPC   C1A28373  13.374  20.009   2.309  0.1177  0.1554 -0.0560
    1DIPC   D2A28374  13.709  19.722   2.478 -0.1908 -0.1915 -0.1604
    1DIPC   D3A28375  13.528  19.563   2.807  0.0769 -0.0991 -0.2485
    1DIPC   C4A28376  13.501  19.584   3.353  0.1564  0.0190  0.0484
    1DIPC   C1B28377  13.243  20.492   2.216 -0.1343  0.2653  0.0096
    1DIPC   D2B28378  13.295  20.691   2.560 -0.1701  0.0184 -0.1111
    1DIPC   D3B28379  13.382  20.949   2.928 -0.0612  0.2350 -0.2058
    1DIPC   C4B28380  13.619  20.751   3.161 -0.2774 -0.0436  0.0429
    1DIPC   NC328381  10.195   4.534   3.415 -0.0187  0.3268  0.0507
    1DIPC   PO428382  10.461   4.202   3.577 -0.1765  0.1855 -0.2249
    1DIPC   GL128383  10.281   4.337   3.975 -0.1924 -0.3761  0.0517
    1DIPC   GL228384  10.515   4.235   4.236 -0.4375  0.2438  0.0482
    1DIPC   C1A28385  10.061   4.575   4.341  0.1460  0.0366  0.2865
    1DIPC   D2A28386   9.845   4.935   4.563 -0.0387  0.1712  0.0543
    1DIPC   D3A28387  10.006   5.311   4.796  0.1095 -0.2253  0.2043
    1DIPC   C4A28388  10.441   5.422   4.844 -0.1122  0.2879 -0.2066
    1DIPC   C1B28389  10.210   4.160   4.605 -0.0951 -0.5582  0.0451
    1DIPC   D2B28390   9.932   4.468   4.948 -0.0916 -0.0581 -0.0397
    1DIPC   D3B28391  10.027   4.738   5.124 -0.0131 -0.2734  0.0633
    1DIPC   C4B28392  10.400   4.946   5.225  0.0952  0.0357 -0.2612
    1DIPC   NC328393  29.498   6.828   2.911 -0.0409  0.1270 -0.0760
    1DIPC   PO428394  29.323   6.516   2.755 -0.3909  0.1509 -0.1913
    1DIPC   GL128395  29.202   6.253   2.983 -0.2944 -0.1606 -0.3658
    1DIPC   GL228396  28.886   6.230   3.085 -0.1250  0.1708  0.0131
    1DIPC   C1A28397  29.184   5.933   3.307 -0.4379  0.2630  0.0712
    1DIPC   D2A28398  29.099   5.476   3.293 -0.2441  0.0560  0.1369
    1DIPC   D3A28399  29.254   5.574   3.781 -0.2298  0.1712  0.0229
    1DIPC   C4A28400  29.470   5.983   3.842 -0.1664 -0.1993 -0.0708
    1DIPC   C1B28401  28.889   6.323   3.530 -0.0757  0.0451 -0.0021
    1DIPC   D2B28402  29.027   6.437   3.916 -0.2493 -0.2956 -0.1074
    1DIPC   D3B28403  29.295   6.212   4.313  0.0825 -0.1928  0.1235
    1DIPC   C4B28404  29.364   5.861   4.334 -0.0528  0.0015  0.4749
    1DIPC   NC328405  24.012  18.689   2.425  0.0591  0.0241  0.0381
    1DIPC   PO428406  23.783  19.107   2.481  0.0539 -0.1396  0.1791
    1DIPC   GL128407  23.849  18.830   2.884  0.0921 -0.2448  0.1125
    1DIPC   GL228408  23.626  18.857   3.119  0.0802 -0.1712 -0.1277
    1DIPC   C1A28409  24.006  18.605   3.261 -0.3462 -0.1909  0.0902
    1DIPC   D2A28410  23.965  18.588   3.721  0.0336 -0.1320 -0.2215
    1DIPC   D3A28411  24.380  18.515   3.721  0.2636  0.0342 -0.1844
    1DIPC   C4A28412  24.630  18.843   3.930  0.1378  0.1050 -0.1541
    1DIPC   C1B28413  23.247  18.696   3.079  0.2727 -0.0632  0.0856
    1DIPC   D2B28414  22.933  18.415   3.213 -0.0374  0.4921 -0.1038
    1DIPC   D3B28415  22.986  18.370   3.686  0.4413 -0.3392  0.2221
    1DIPC   C4B28416  23.189  18.668   3.913  0.0283  0.0554 -0.1185
    1DIPC   NC328417  29.100  17.761   3.186  0.0225 -0.1011 -0.2406
    1DIPC   PO428418  29.489  17.769   2.992 -0.0106  0.1443  0.2379
    1DIPC   GL128419  29.624  17.520   3.366 -0.0041 -0.2154 -0.1280
    1DIPC   GL228420  29.470  17.178   3.309  0.0272 -0.1122  0.2597
    1DIPC   C1A28421   0.128  17.578   3.687  0.0352  0.0897 -0.2471
    1DIPC   D2A28422   0.357  17.563   4.103  0.1244 -0.0133  0.3359
    1DIPC   D3A28423   0.402  17.546   4.506 -0.1682  0.0060  0.2435
    1DIPC   C4A28424   0.133  17.919   4.617 -0.2411  0.0323 -0.0484
    1DIPC   C1B28425  29.782  17.091   3.607  0.0220  0.1521 -0.2025
    1DIPC   D2B28426   0.097  16.822   3.911  0.3410  0.2167  0.2387
    1DIPC   D3B28427   0.049  16.869   4.374  0.3170 -0.0256 -0.1133
    1DIPC   C4B28428   0.282  16.569   4.483 -0.0495 -0.1909 -0.1826
    1DIPC   NC328429  11.772  17.086   2.753  0.1432  0.1330  0.1902
    1DIPC   PO428430  11.369  17.092   2.617 -0.3686 -0.1279  0.3179
    1DIPC   GL128431  11.342  16.974   3.011  0.0556  0.2254  0.0290
    1DIPC   GL228432  11.372  17.243   3.166  0.0208  0.0080  0.3245
    1DIPC   C1A28433  11.269  16.590   3.333  0.1650  0.0048 -0.0347
    1DIPC   D2A28434  11.280  16.689   3.711 -0.1616 -0.0139  0.0759
    1DIPC   D3A28435  11.058  16.983   3.972  0.0375 -0.0156 -0.0089
    1DIPC   C4A28436  10.804  17.021   4.384 -0.1279  0.0570  0.1212
    1DIPC   C1B28437  11.044  17.588   3.181 -0.2286  0.0277 -0.0065
    1DIPC   D2B28438  10.724  17.784   3.174  0.0788  0.2437  0.2316
    1DIPC   D3B28439  10.764  17.888   3.621  0.0291 -0.2916  0.0750
    1DIPC   C4B28440  11.154  17.820   3.796 -0.0277 -0.0035  0.0339
    1DIPC   NC328441  29.216   8.232   3.008 -0.2287  0.2241  0.1158
    1DIPC   PO428442  29.131   7.754   3.236  0.0191  0.2390  0.0033
    1DIPC   GL128443  29.117   7.656   3.561 -0.1302 -0.1602 -0.0176
    1DIPC   GL228444  28.794   7.497   3.662 -0.1312 -0.0361 -0.2578
    1DIPC   C1A28445  29.046   7.787   4.032 -0.0235 -0.2481 -0.2386
    1DIPC   D2A28446  28.852   8.032   4.462  0.1427  0.0403 -0.4054
    1DIPC   D3A28447  29.160   8.258   4.692 -0.1179 -0.1280  0.0313
    1DIPC   C4A28448  29.405   8.433   4.393 -0.0654 -0.0395 -0.1541
    1DIPC   C1B28449  28.713   7.327   4.090  0.0234 -0.0455  0.1364
    1DIPC   D2B28450  28.759   7.525   4.508 -0.0378 -0.2329  0.1732
    1DIPC   D3B28451  29.066   7.626   4.806 -0.3114  0.0186  0.0172
    1DIPC   C4B28452  29.492   7.635   4.758 -0.0724  0.0761 -0.0294
    1DIPC   NC328453  16.467   1.646   3.888  0.1209  0.0598 -0.1521
    1DIPC   PO428454  16.842   1.596   4.211 -0.0319  0.0220  0.0871
    1DIPC   GL128455  16.760   1.595   4.614 -0.0284  0.2174  0.1934
    1DIPC   GL228456  16.535   1.784   4.668  0.0489 -0.4022 -0.2323
    1DIPC   C1A28457  16.763   1.497   5.107  0.0444 -0.2717 -0.0206
    1DIPC   D2A28458  16.654   1.116   5.213 -0.0750 -0.2655  0.2932
    1DIPC   D3A28459  16.844   1.347   5.683 -0.2545 -0.0090  0.2037
    1DIPC   C4A28460  16.548   1.746   5.786  0.0041  0.0730 -0.3423
    1DIPC   C1B28461  16.240   2.049   4.680  0.0003 -0.1252  0.0391
    1DIPC   D2B28462  16.121   2.414   4.781  0.1870 -0.0957 -0.0773
    1DIPC   D3B28463  15.760   2.236   4.788  0.1553 -0.0811  0.0585
    1DIPC   C4B28464  15.477   2.544   4.797 -0.1753  0.0398 -0.2801
    1DIPC   NC328465  13.645  15.566   2.461  0.0158  0.1368  0.0675
    1DIPC   PO428466  13.185  15.616   2.364  0.0837  0.0707 -0.1821
    1DIPC   GL128467  13.346  15.576   2.872 -0.2383 -0.4361  0.0370
    1DIPC   GL228468  13.570  15.288   2.907 -0.2036 -0.0045  0.3076
    1DIPC   C1A28469  13.328  15.403   3.263  0.1115 -0.2039 -0.1822
    1DIPC   D2A28470  13.324  15.396   3.697 -0.2515  0.2019  0.2244
    1DIPC   D3A28471  13.446  15.681   4.010 -0.0509  0.1420 -0.1970
    1DIPC   C4A28472  13.273  15.758   4.363 -0.2140  0.1721 -0.0014
    1DIPC   C1B28473  13.656  15.047   3.343 -0.0013  0.0532  0.1126
    1DIPC   D2B28474  13.502  14.785   3.671  0.1480  0.2500 -0.3620
    1DIPC   D3B28475  13.461  15.121   4.030  0.1753  0.0568 -0.1415
    1DIPC   C4B28476  13.271  14.975   4.314 -0.1789 -0.1695 -0.1156
    1DIPC   NC328477  14.163  26.488   2.583  0.0898 -0.0177  0.0635
    1DIPC   PO428478  14.583  26.310   2.498 -0.4284 -0.3165 -0.1792
    1DIPC   GL128479  14.691  26.597   2.909 -0.0340  0.2179  0.0730
    1DIPC   GL228480  14.409  26.529   3.124 -0.2700 -0.0876  0.4519
    1DIPC   C1A28481  14.889  26.854   3.189 -0.0993  0.0078  0.0946
    1DIPC   D2A28482  15.282  27.095   3.346 -0.0247 -0.3048  0.0047
    1DIPC   D3A28483  15.503  27.464   3.269 -0.1818 -0.1754 -0.3156
    1DIPC   C4A28484  15.619  27.696   3.567  0.0672 -0.0035 -0.0047
    1DIPC   C1B28485  14.507  26.766   3.511 -0.1566  0.1381  0.2357
    1DIPC   D2B28486  14.796  26.624   3.858  0.2073 -0.4137 -0.2685
    1DIPC   D3B28487  14.565  26.900   4.095  0.2761  0.1295  0.2810
    1DIPC   C4B28488  14.240  27.046   3.823 -0.1247  0.0072 -0.2674
    1DIPC   NC328489  21.246  15.400   1.775 -0.0031 -0.2104 -0.4255
    1DIPC   PO428490  21.306  15.805   1.867  0.0904 -0.0671 -0.2567
    1DIPC   GL128491  21.357  15.876   2.378  0.0597  0.0743 -0.0669
    1DIPC   GL228492  21.655  15.698   2.523  0.2557  0.0486 -0.0166
    1DIPC   C1A28493  21.220  15.798   2.808  0.0258 -0.0842 -0.0331
    1DIPC   D2A28494  20.919  15.592   3.007 -0.1342 -0.2921 -0.3709
    1DIPC   D3A28495  21.136  15.746   3.339 -0.2048 -0.1133  0.0383
    1DIPC   C4A28496  21.291  15.758   3.707 -0.1613 -0.0354 -0.0164
    1DIPC   C1B28497  21.759  16.032   2.844  0.0215 -0.1595 -0.0411
    1DIPC   D2B28498  21.875  16.348   3.179  0.0384  0.0452  0.0889
    1DIPC   D3B28499  21.862  16.642   2.812 -0.0844 -0.0633 -0.0042
    1DIPC   C4B28500  22.254  16.568   2.478 -0.0242 -0.0262 -0.0495
    1DIPC   NC328501  19.704   9.525   2.837  0.2675  0.0608  0.1578
    1DIPC   PO428502  19.571   9.339   3.242 -0.3597  0.1278  0.3039
    1DIPC   GL128503  19.573   9.306   3.702  0.3768 -0.5006 -0.0284
    1DIPC   GL228504  19.336   9.216   3.850 -0.1521 -0.1552  0.1346
    1DIPC   C1A28505  19.677   9.326   4.157 -0.2880  0.1838 -0.0939
    1DIPC   D2A28506  19.680   9.307   4.566 -0.0105 -0.1609 -0.0391
    1DIPC   D3A28507  19.631   9.746   4.713 -0.1510  0.1187 -0.0150
    1DIPC   C4A28508  19.269   9.970   4.661 -0.2945 -0.2519 -0.0294
    1DIPC   C1B28509  19.215   9.603   4.064  0.1384  0.1934  0.1794
    1DIPC   D2B28510  19.299   9.599   4.383  0.0713 -0.0860  0.1254
    1DIPC   D3B28511  19.600   9.954   4.252  0.0777 -0.2347 -0.1620
    1DIPC   C4B28512  19.514  10.081   3.899  0.1046  0.3267 -0.1882
    1DIPC   NC328513   1.281   5.871   2.946  0.2482  0.1868 -0.1225
    1DIPC   PO428514   0.971   6.229   3.125  0.0839  0.1718 -0.0396
    1DIPC   GL128515   1.089   6.391   3.371  0.0901  0.0428  0.0826
    1DIPC   GL228516   1.422   6.392   3.350 -0.1304  0.0034 -0.0458
    1DIPC   C1A28517   0.905   6.644   3.689  0.2188 -0.0916 -0.0057
    1DIPC   D2A28518   0.984   6.558   4.099 -0.0296 -0.3000  0.1142
    1DIPC   D3A28519   0.792   6.302   4.304 -0.3066  0.2349  0.1484
    1DIPC   C4A28520   0.580   6.501   4.597  0.1075 -0.0481  0.2801
    1DIPC   C1B28521   1.556   6.564   3.706  0.0846 -0.0700  0.2282
    1DIPC   D2B28522   1.805   6.728   4.037  0.2227 -0.2891 -0.1574
    1DIPC   D3B28523   1.973   6.704   4.413 -0.0644  0.2891  0.0744
    1DIPC   C4B28524   1.656   6.735   4.770  0.2373  0.1115 -0.1070
    1DIPC   NC328525  23.375   5.948   3.300  0.1105  0.1249  0.0216
    1DIPC   PO428526  23.613   5.996   3.700  0.0636 -0.2487 -0.0387
    1DIPC   GL128527  23.488   6.057   4.146 -0.4030 -0.0531 -0.4354
    1DIPC   GL228528  23.632   5.763   4.349  0.1564  0.3069 -0.5194
    1DIPC   C1A28529  23.630   6.321   4.412 -0.3785  0.3341 -0.0601
    1DIPC   D2A28530  23.674   6.352   4.821  0.1380  0.1194 -0.0542
    1DIPC   D3A28531  23.884   6.410   5.343  0.2113  0.1595  0.1133
    1DIPC   C4A28532  24.158   6.205   5.432 -0.0917 -0.1257  0.3469
    1DIPC   C1B28533  23.732   5.854   4.708 -0.0745 -0.1606  0.0258
    1DIPC   D2B28534  24.049   5.994   4.998  0.0216 -0.2274 -0.0370
    1DIPC   D3B28535  24.399   5.797   5.193  0.2602  0.2035 -0.2769
    1DIPC   C4B28536  24.394   5.705   5.633 -0.0701 -0.0199 -0.1564
    1DIPC   NC328537   2.018  22.778   2.504 -0.0495 -0.0617  0.3438
    1DIPC   PO428538   1.603  22.806   2.726 -0.1450 -0.1273  0.0276
    1DIPC   GL128539   1.634  22.689   3.126 -0.0925  0.2700  0.1258
    1DIPC   GL228540   1.494  22.798   3.317 -0.2799  0.0570 -0.1036
    1DIPC   C1A28541   1.617  22.279   3.228  0.1158 -0.1871  0.0579
    1DIPC   D2A28542   2.004  22.084   3.473 -0.0108  0.1732 -0.3789
    1DIPC   D3A28543   2.394  22.297   3.601  0.3156 -0.0309 -0.1350
    1DIPC   C4A28544   2.774  22.098   3.276  0.0408  0.2466 -0.3809
    1DIPC   C1B28545   1.524  22.647   3.710 -0.0057  0.3592  0.0456
    1DIPC   D2B28546   1.508  22.764   4.170  0.1818  0.1223 -0.0945
    1DIPC   D3B28547   1.557  23.175   4.307 -0.2084 -0.3470  0.2470
    1DIPC   C4B28548   1.882  23.411   4.140  0.2505 -0.1226 -0.0610
    1DIPC   NC328549  12.026  29.428   3.123  0.2452 -0.1772 -0.1827
    1DIPC   PO428550  11.925  29.797   3.348  0.0656  0.1336  0.1462
    1DIPC   GL128551  11.893   0.149   3.790 -0.1323 -0.0744 -0.0334
    1DIPC   GL228552  11.985  29.688   3.942 -0.0767 -0.1965 -0.0376
    1DIPC   C1A28553  11.933   0.295   4.197 -0.1573  0.0828 -0.0176
    1DIPC   D2A28554  11.899   0.230   4.657  0.1068 -0.2082  0.0563
    1DIPC   D3A28555  12.148   0.254   5.122 -0.1701 -0.2879  0.3412
    1DIPC   C4A28556  12.563   0.126   5.265  0.1644 -0.1932 -0.4535
    1DIPC   C1B28557  12.147  29.714   4.282  0.0634  0.3192 -0.2433
    1DIPC   D2B28558  12.395   0.024   4.695 -0.1983  0.0367 -0.4056
    1DIPC   D3B28559  12.024  29.598   4.822 -0.2164  0.2230 -0.0654
    1DIPC   C4B28560  12.025  29.126   4.720 -0.2187 -0.0001  0.3198
    1DIPC   NC328561  10.400  21.102   1.787 -0.1783 -0.2830  0.3199
    1DIPC   PO428562  10.306  21.438   2.165  0.3136  0.0375 -0.2883
    1DIPC   GL128563  10.405  21.540   2.558 -0.0711  0.1102  0.0623
    1DIPC   GL228564  10.677  21.661   2.725  0.2053 -0.0384  0.1412
    1DIPC   C1A28565  10.217  21.693   2.901  0.1395 -0.1152  0.0966
    1DIPC   D2A28566  10.267  21.421   3.297 -0.0453 -0.0325 -0.0423
    1DIPC   D3A28567  10.332  21.868   3.385 -0.1908 -0.1344  0.1044
    1DIPC   C4A28568  10.230  21.933   3.812 -0.1145 -0.1305 -0.1789
    1DIPC   C1B28569  10.722  21.682   3.142 -0.0113 -0.4346 -0.2011
    1DIPC   D2B28570  10.689  21.511   3.590  0.1581 -0.2362  0.1057
    1DIPC   D3B28571  10.935  21.827   3.652 -0.1685 -0.1003 -0.3423
    1DIPC   C4B28572  10.795  22.228   3.399  0.2544 -0.1614 -0.0332
    1DIPC   NC328573  13.059   8.502   3.191  0.1376  0.0500 -0.1724
    1DIPC   PO428574  12.990   8.349   3.650  0.2218 -0.0460 -0.0441
    1DIPC   GL128575  12.629   8.457   3.934  0.5375 -0.0804  0.0371
    1DIPC   GL228576  12.371   8.325   3.818 -0.2561  0.2128 -0.0620
    1DIPC   C1A28577  12.447   8.533   4.361  0.0594 -0.0457  0.1592
    1DIPC   D2A28578  12.302   8.430   4.868  0.2890  0.0715  0.3078
    1DIPC   D3A28579  12.588   8.391   5.311  0.1234 -0.1826  0.2471
    1DIPC   C4A28580  12.556   8.034   5.642 -0.3421  0.2953  0.2875
    1DIPC   C1B28581  11.986   8.265   3.974  0.2964 -0.0305 -0.1489
    1DIPC   D2B28582  11.865   7.904   4.216 -0.2210  0.1549 -0.1297
    1DIPC   D3B28583  11.956   8.231   4.507  0.0847  0.0489 -0.1093
    1DIPC   C4B28584  11.714   8.562   4.809 -0.1101 -0.1089  0.0336
    1DIPC   NC328585  26.823  10.618   2.438 -0.3240  0.0796 -0.3066
    1DIPC   PO428586  27.089  10.867   2.553  0.1993 -0.0326 -0.0470
    1DIPC   GL128587  26.986  10.915   2.927 -0.1296 -0.1041 -0.0985
    1DIPC   GL228588  26.999  10.668   3.083 -0.0345 -0.0798 -0.1176
    1DIPC   C1A28589  26.532  10.708   3.054 -0.0073 -0.0142  0.1399
    1DIPC   D2A28590  26.074  10.643   2.992 -0.0571 -0.1514  0.0614
    1DIPC   D3A28591  25.959  11.088   3.123  0.1864 -0.2687 -0.1506
    1DIPC   C4A28592  26.144  11.178   3.431 -0.0875 -0.1404 -0.2241
    1DIPC   C1B28593  26.838  10.422   3.483 -0.1342  0.0177  0.0269
    1DIPC   D2B28594  26.577  10.129   3.680 -0.0330  0.0326  0.3385
    1DIPC   D3B28595  26.831  10.186   4.070 -0.0395 -0.2323  0.1880
    1DIPC   C4B28596  27.045   9.773   4.250 -0.2671  0.2212  0.0848
    1DIPC   NC328597  15.358  29.203   2.951  0.0032  0.2114 -0.1449
    1DIPC   PO428598  15.273  29.630   3.213 -0.0277  0.0107  0.0223
    1DIPC   GL128599  15.248  29.798   3.695 -0.1034  0.0763  0.0473
    1DIPC   GL228600  14.903  29.849   3.797 -0.1598 -0.3077 -0.0248
    1DIPC   C1A28601  15.436  29.829   4.005  0.1470  0.5652  0.2286
    1DIPC   D2A28602  15.608  29.597   4.343  0.2806  0.1649 -0.0420
    1DIPC   D3A28603  15.706  29.703   4.781 -0.1147  0.0513  0.2252
    1DIPC   C4A28604  15.950  29.515   5.166 -0.2087  0.0927  0.0593
    1DIPC   C1B28605  15.046  29.590   4.175  0.1452 -0.1812 -0.1075
    1DIPC   D2B28606  15.186  29.655   4.588 -0.1013  0.2959  0.1767
    1DIPC   D3B28607  14.994  29.248   4.645 -0.0688  0.1240  0.2193
    1DIPC   C4B28608  15.018  28.891   4.933 -0.3587  0.0037 -0.1496
    1DIPC   NC328609  21.993  15.187   2.195  0.0145  0.3092 -0.1210
    1DIPC   PO428610  21.906  14.906   2.423  0.0447  0.1414 -0.1004
    1DIPC   GL128611  21.922  15.295   2.696 -0.1494 -0.0946 -0.0514
    1DIPC   GL228612  22.218  15.247   2.811  0.0388 -0.3681  0.0676
    1DIPC   C1A28613  22.051  15.645   3.075  0.3064  0.0763 -0.0216
    1DIPC   D2A28614  22.251  15.987   3.300 -0.2269  0.0229  0.0743
    1DIPC   D3A28615  22.680  16.082   3.138 -0.0609  0.2199 -0.1134
    1DIPC   C4A28616  23.001  15.963   3.363  0.0355  0.2558 -0.0429
    1DIPC   C1B28617  22.345  15.281   3.220  0.0809  0.1298  0.4198
    1DIPC   D2B28618  22.267  15.183   3.642 -0.0839 -0.1309 -0.0220
    1DIPC   D3B28619  22.209  15.644   3.682 -0.2663  0.0404 -0.1405
    1DIPC   C4B28620  22.293  15.801   4.031  0.1514  0.1885 -0.0367
    1DIPC   NC328621  29.620  23.862   2.030  0.0953  0.0266 -0.5557
    1DIPC   PO428622  29.777  23.610   2.202 -0.2317  0.2116  0.0686
    1DIPC   GL128623  29.755  23.562   2.624  0.0687  0.3600 -0.0561
    1DIPC   GL228624  29.714  23.286   2.843  0.0756  0.0428  0.3076
    1DIPC   C1A28625  29.817  23.702   3.064 -0.1578 -0.0426  0.1374
    1DIPC   D2A28626   0.095  23.914   3.433  0.0145  0.0490 -0.3111
    1DIPC   D3A28627   0.349  24.271   3.452 -0.1401  0.1819  0.0446
    1DIPC   C4A28628   0.428  24.445   3.838  0.0096 -0.3186  0.3395
    1DIPC   C1B28629   0.027  23.233   3.299  0.1345  0.0229  0.0792
    1DIPC   D2B28630   0.217  23.206   3.711  0.3579  0.3423 -0.1077
    1DIPC   D3B28631   0.117  23.071   4.076 -0.3337  0.0073  0.0489
    1DIPC   C4B28632  29.672  22.725   3.927 -0.3678  0.0484  0.1569
    1DIPC   NC328633  15.488  18.924   1.822  0.0545  0.0391  0.2966
    1DIPC   PO428634  15.337  18.543   1.967  0.3889  0.2930  0.2351
    1DIPC   GL128635  15.310  18.589   2.541 -0.1015  0.4087  0.2009
    1DIPC   GL228636  15.164  18.819   2.798  0.0038  0.3448  0.0719
    1DIPC   C1A28637  15.324  18.265   2.774  0.1280 -0.2815 -0.3420
    1DIPC   D2A28638  15.162  18.159   3.143 -0.0391 -0.0525 -0.1535
    1DIPC   D3A28639  15.429  17.840   3.340 -0.2394  0.1067 -0.1662
    1DIPC   C4A28640  15.115  17.699   3.648 -0.2458 -0.2016  0.2827
    1DIPC   C1B28641  15.180  18.641   3.134  0.3813  0.0262 -0.2425
    1DIPC   D2B28642  14.842  18.561   3.479  0.0273 -0.0077  0.3191
    1DIPC   D3B28643  15.034  18.649   3.766  0.2907  0.0345  0.1240
    1DIPC   C4B28644  15.288  18.401   4.046 -0.0078 -0.0285  0.0636
    1DIPC   NC328645  25.481   1.666   2.674 -0.0661  0.0902 -0.1852
    1DIPC   PO428646  25.770   1.629   3.102  0.1254 -0.0056 -0.1050
    1DIPC   GL128647  25.948   1.742   3.536 -0.0632  0.2667 -0.0842
    1DIPC   GL228648  25.619   1.759   3.758 -0.1635  0.1051  0.0081
    1DIPC   C1A28649  26.239   1.558   3.874  0.3758 -0.0983  0.1790
    1DIPC   D2A28650  26.311   1.207   4.157  0.0044 -0.2743  0.1514
    1DIPC   D3A28651  26.736   1.468   4.030  0.0435  0.0231 -0.0150
    1DIPC   C4A28652  26.734   1.814   4.013  0.0465 -0.1681  0.0659
    1DIPC   C1B28653  25.214   1.937   3.874  0.1009 -0.2754  0.0460
    1DIPC   D2B28654  24.863   1.971   4.097 -0.1093 -0.0234  0.0529
    1DIPC   D3B28655  24.976   1.881   4.478  0.2242 -0.2938  0.1130
    1DIPC   C4B28656  24.765   1.944   4.888  0.1225  0.0565 -0.0244
    1DIPC   NC328657  11.626  14.485   2.234  0.0386 -0.1306 -0.1062
    1DIPC   PO428658  11.742  14.880   2.342 -0.0800 -0.1257  0.0258
    1DIPC   GL128659  11.554  14.843   2.862 -0.2024 -0.0806 -0.0972
    1DIPC   GL228660  11.651  15.128   3.094 -0.0020  0.1973 -0.0440
    1DIPC   C1A28661  11.636  14.570   3.276 -0.0390  0.1310  0.1466
    1DIPC   D2A28662  11.707  14.455   3.687  0.0101  0.0933 -0.0119
    1DIPC   D3A28663  11.650  14.078   3.897 -0.4863 -0.2221 -0.2021
    1DIPC   C4A28664  11.333  14.076   4.280  0.5474  0.1042  0.2076
    1DIPC   C1B28665  11.585  15.154   3.570 -0.2321  0.0139  0.1609
    1DIPC   D2B28666  11.379  15.020   4.004  0.2548 -0.2712 -0.0398
    1DIPC   D3B28667  11.507  14.613   4.150 -0.1181 -0.0599  0.1158
    1DIPC   C4B28668  11.939  14.561   4.266 -0.3670  0.0030 -0.0359
    1DIPC   NC328669   2.847  22.564   2.422  0.0083 -0.0596  0.2734
    1DIPC   PO428670   3.005  23.034   2.370  0.2181 -0.2738  0.1235
    1DIPC   GL128671   2.851  23.116   2.833  0.3849  0.2786  0.0776
    1DIPC   GL228672   2.858  23.454   2.977  0.2673  0.1154  0.1698
    1DIPC   C1A28673   2.896  23.040   3.270  0.3218  0.2046  0.2854
    1DIPC   D2A28674   3.070  23.197   3.652 -0.0953  0.2691  0.0236
    1DIPC   D3A28675   3.237  23.542   3.927 -0.2157  0.1750 -0.1111
    1DIPC   C4A28676   2.962  23.747   4.353  0.1652 -0.2895 -0.2228
    1DIPC   C1B28677   2.868  23.586   3.419  0.2381 -0.3282 -0.1598
    1DIPC   D2B28678   3.142  23.951   3.597 -0.3708  0.1978 -0.1382
    1DIPC   D3B28679   3.045  24.023   3.950 -0.5246 -0.0639  0.2160
    1DIPC   C4B28680   2.540  24.133   4.118 -0.2010 -0.1762 -0.0742
    1DIPC   NC328681  10.210   8.882   2.588 -0.5352  0.3553  0.3092
    1DIPC   PO428682  10.628   8.794   2.821  0.0718 -0.1570 -0.1340
    1DIPC   GL128683  10.345   8.881   3.193  0.0647 -0.2308 -0.3598
    1DIPC   GL228684  10.142   8.691   3.058  0.1813 -0.0383 -0.4553
    1DIPC   C1A28685  10.110   9.068   3.639 -0.3702  0.1555 -0.0816
    1DIPC   D2A28686  10.315   9.019   4.057 -0.2474 -0.1445  0.0200
    1DIPC   D3A28687  10.121   9.344   4.181 -0.1871  0.1799 -0.0139
    1DIPC   C4A28688  10.363   9.674   4.355  0.1323  0.0334 -0.1009
    1DIPC   C1B28689   9.814   8.725   3.365  0.2122 -0.0505  0.1658
    1DIPC   D2B28690   9.625   8.727   3.813  0.0959 -0.0804  0.0181
    1DIPC   D3B28691  10.001   8.624   3.861  0.2201  0.2053  0.2047
    1DIPC   C4B28692  10.270   8.529   3.494 -0.2288 -0.0267 -0.0297
    1DIPC   NC328693  14.338   1.581   3.969 -0.3695 -0.2223 -0.0744
    1DIPC   PO428694  14.097   1.267   3.716 -0.1677 -0.2687 -0.1104
    1DIPC   GL128695  14.232   0.956   4.018  0.3794  0.2693 -0.1148
    1DIPC   GL228696  14.424   1.006   4.302  0.1254  0.1073  0.3178
    1DIPC   C1A28697  14.026   0.794   4.358 -0.0990  0.1508  0.0345
    1DIPC   D2A28698  13.843   0.526   4.557  0.2991  0.1526 -0.1625
    1DIPC   D3A28699  13.925   0.689   5.020  0.3233  0.2423 -0.1323
    1DIPC   C4A28700  14.313   0.501   4.985 -0.2089 -0.0121  0.2415
    1DIPC   C1B28701  14.366   1.075   4.847 -0.0039 -0.0123 -0.2101
    1DIPC   D2B28702  14.354   0.957   5.343  0.1216 -0.0119 -0.0484
    1DIPC   D3B28703  13.975   1.086   5.478 -0.1275  0.0671  0.1825
    1DIPC   C4B28704  13.815   0.769   5.781  0.0142 -0.0502  0.0477
    1DIPC   NC328705   6.584   8.828   3.335  0.1655  0.3034 -0.0496
    1DIPC   PO428706   6.736   8.458   3.261  0.0851 -0.1196  0.1248
    1DIPC   GL128707   6.890   8.597   3.601 -0.0840  0.2099  0.1713
    1DIPC   GL228708   6.612   8.806   3.808 -0.1648 -0.1591  0.1195
    1DIPC   C1A28709   7.268   8.596   3.886  0.0075 -0.0101  0.1228
    1DIPC   D2A28710   7.368   8.543   4.185 -0.3024  0.0586  0.1444
    1DIPC   D3A28711   7.639   8.476   4.573 -0.0565  0.3661  0.1500
    1DIPC   C4A28712   7.846   8.785   4.864 -0.0603  0.2099 -0.1181
    1DIPC   C1B28713   6.472   8.878   4.251 -0.1388 -0.2975  0.1191
    1DIPC   D2B28714   6.152   8.871   4.600 -0.0755  0.0295 -0.0736
    1DIPC   D3B28715   5.760   8.651   4.512  0.3555 -0.2315  0.0054
    1DIPC   C4B28716   5.359   8.640   4.361  0.1924 -0.0917  0.2642
    1DIPC   NC328717   3.256   3.462   3.152  0.3960 -0.1560  0.0162
    1DIPC   PO428718   3.611   3.704   3.231  0.2359  0.2648 -0.0385
    1DIPC   GL128719   3.480   4.066   3.557 -0.0185  0.1172 -0.0280
    1DIPC   GL228720   3.449   3.805   3.772 -0.1688  0.1945 -0.4333
    1DIPC   C1A28721   3.426   4.270   3.944 -0.0855 -0.4437 -0.0964
    1DIPC   D2A28722   3.117   4.483   4.123 -0.2666 -0.1893  0.0125
    1DIPC   D3A28723   3.146   4.645   4.513  0.0761 -0.0222  0.1280
    1DIPC   C4A28724   3.484   4.686   4.853  0.0828  0.2067 -0.1138
    1DIPC   C1B28725   3.380   3.708   4.177 -0.1811  0.1534  0.0003
    1DIPC   D2B28726   3.175   3.732   4.582 -0.1405  0.0817  0.2001
    1DIPC   D3B28727   2.744   3.671   4.689  0.1382  0.1088 -0.0198
    1DIPC   C4B28728   2.379   4.002   4.495 -0.2231  0.0838  0.1544
    1DIPC   NC328729  24.036   3.793   3.195  0.2718  0.0273 -0.2175
    1DIPC   PO428730  24.213   3.801   3.590 -0.0441  0.3535 -0.0847
    1DIPC   GL128731  24.105   3.496   3.946 -0.0658  0.0698 -0.1831
    1DIPC   GL228732  23.944   3.548   4.272 -0.0780 -0.0337 -0.0476
    1DIPC   C1A28733  24.326   3.155   4.193 -0.1886 -0.0922 -0.2079
    1DIPC   D2A28734  24.722   3.267   4.410  0.0325  0.2698 -0.1595
    1DIPC   D3A28735  24.447   3.289   4.694  0.0917 -0.3176 -0.0187
    1DIPC   C4A28736  24.172   3.030   4.751  0.2042  0.0127 -0.2596
    1DIPC   C1B28737  24.046   3.633   4.722 -0.1989  0.0098  0.4465
    1DIPC   D2B28738  24.254   3.486   5.076 -0.0073  0.0459  0.0888
    1DIPC   D3B28739  24.054   3.239   5.280  0.0334 -0.1019 -0.0397
    1DIPC   C4B28740  24.212   3.124   5.656  0.0050  0.3171 -0.0376
    1DIPC   NC328741  25.809   2.158   3.187  0.0661  0.3961  0.0712
    1DIPC   PO428742  26.221   2.075   3.094 -0.0084  0.1625 -0.2551
    1DIPC   GL128743  26.603   2.147   3.369 -0.1684  0.1288 -0.1349
    1DIPC   GL228744  26.402   2.017   3.619  0.0071 -0.4149 -0.0267
    1DIPC   C1A28745  26.960   2.278   3.570  0.0037 -0.0318 -0.0507
    1DIPC   D2A28746  27.184   2.412   3.949 -0.1132 -0.1572  0.2061
    1DIPC   D3A28747  27.295   2.833   4.252  0.0337 -0.0823  0.0047
    1DIPC   C4A28748  27.519   2.873   4.656 -0.3574  0.1489  0.0896
    1DIPC   C1B28749  26.452   2.309   3.945 -0.1611  0.2217 -0.0246
    1DIPC   D2B28750  26.408   2.461   4.230  0.3088  0.1960 -0.1449
    1DIPC   D3B28751  26.003   2.335   4.328 -0.1455 -0.0872  0.1201
    1DIPC   C4B28752  25.755   2.352   4.738 -0.0400  0.1104 -0.1622
    1DIPC   NC328753   9.879   2.963   3.591  0.1835  0.1850  0.1559
    1DIPC   PO428754   9.971   2.675   3.830 -0.2304  0.0011  0.4029
    1DIPC   GL128755   9.703   2.487   4.219  0.2374 -0.2968 -0.0390
    1DIPC   GL228756   9.868   2.461   4.496  0.0043  0.1382  0.1369
    1DIPC   C1A28757   9.578   2.034   4.505  0.1031  0.0855 -0.0937
    1DIPC   D2A28758   9.253   1.684   4.611 -0.0954 -0.2469 -0.1527
    1DIPC   D3A28759   9.382   1.564   4.971  0.0077 -0.1973  0.1783
    1DIPC   C4A28760   9.651   1.155   4.982  0.0645  0.0743 -0.1198
    1DIPC   C1B28761   9.851   2.500   4.914  0.0649 -0.2108  0.2819
    1DIPC   D2B28762   9.620   2.511   5.278  0.0108 -0.0863  0.2792
    1DIPC   D3B28763   9.316   2.833   5.085 -0.1463 -0.0465  0.1390
    1DIPC   C4B28764   9.066   3.112   5.360 -0.3463 -0.0152 -0.0430
    1DIPC   NC328765   8.306   6.447   2.684 -0.2391  0.0043  0.0234
    1DIPC   PO428766   8.211   6.634   3.074 -0.1026 -0.1638  0.0003
    1DIPC   GL128767   8.149   6.485   3.471  0.0281  0.1519  0.1268
    1DIPC   GL228768   8.194   6.760   3.560 -0.0826  0.0573 -0.1457
    1DIPC   C1A28769   8.285   6.459   3.931 -0.0753  0.5572 -0.1063
    1DIPC   D2A28770   8.089   6.301   4.196 -0.0044  0.2644  0.2747
    1DIPC   D3A28771   8.019   6.500   4.608  0.0289 -0.1961  0.0899
    1DIPC   C4A28772   8.159   6.932   4.790  0.0651  0.0365 -0.0500
    1DIPC   C1B28773   8.160   6.941   3.921 -0.1476  0.0035 -0.1813
    1DIPC   D2B28774   7.923   6.958   4.312 -0.2130  0.3826  0.0734
    1DIPC   D3B28775   8.184   7.225   4.374  0.1224 -0.0739 -0.0423
    1DIPC   C4B28776   8.154   7.542   4.082 -0.1208  0.1244  0.1233
    1DIPC   NC328777  22.805   8.498   2.755 -0.0691  0.1326 -0.3135
    1DIPC   PO428778  23.019   8.859   2.969 -0.1671 -0.0627 -0.1550
    1DIPC   GL128779  22.891   9.022   3.354  0.1679 -0.1468  0.3029
    1DIPC   GL228780  23.081   9.008   3.543 -0.0178  0.1218 -0.3103
    1DIPC   C1A28781  22.738   8.697   3.601 -0.0611  0.0732 -0.2158
    1DIPC   D2A28782  22.827   8.450   3.991  0.2307  0.0612 -0.0036
    1DIPC   D3A28783  22.783   8.066   4.063 -0.3400 -0.4045  0.3171
    1DIPC   C4A28784  22.772   8.083   4.452 -0.0433  0.1510 -0.1894
    1DIPC   C1B28785  22.847   9.043   3.929  0.1598  0.0750  0.0151
    1DIPC   D2B28786  22.464   8.946   4.032 -0.0059 -0.0887  0.1285
    1DIPC   D3B28787  22.165   9.088   3.816 -0.0298  0.1305 -0.0276
    1DIPC   C4B28788  22.199   9.487   3.685  0.1220  0.2107  0.1418
    1DIPC   NC328789   5.591   4.406   3.280 -0.0800  0.0802 -0.0382
    1DIPC   PO428790   5.143   4.256   3.217 -0.1827  0.0710 -0.3017
    1DIPC   GL128791   5.284   4.100   3.550  0.2437 -0.5258 -0.1172
    1DIPC   GL228792   5.014   4.210   3.820 -0.0738 -0.0191 -0.0820
    1DIPC   C1A28793   5.338   3.753   3.887  0.1249 -0.1174 -0.1721
    1DIPC   D2A28794   5.556   3.721   4.259  0.0390  0.3247 -0.2461
    1DIPC   D3A28795   5.320   3.463   4.569 -0.1491 -0.2424  0.0297
    1DIPC   C4A28796   4.940   3.301   4.757 -0.1493  0.2467  0.0656
    1DIPC   C1B28797   4.742   3.940   4.026  0.1694 -0.2469 -0.2891
    1DIPC   D2B28798   4.599   3.904   4.485 -0.1804  0.0891 -0.1852
    1DIPC   D3B28799   4.621   3.448   4.353  0.0384 -0.0430 -0.3070
    1DIPC   C4B28800   4.995   3.400   4.226 -0.0849 -0.0006  0.3726
    1DIPC   NC328801   6.532   2.888   2.655  0.0993 -0.1076  0.0546
    1DIPC   PO428802   6.750   2.823   3.005  0.1536 -0.0450 -0.1543
    1DIPC   GL128803   6.804   2.861   3.422 -0.2102  0.0303 -0.0136
    1DIPC   GL228804   6.633   3.174   3.372  0.0604 -0.0235  0.2685
    1DIPC   C1A28805   6.625   2.850   3.884 -0.2830  0.0672 -0.0922
    1DIPC   D2A28806   6.404   2.660   4.193 -0.1795 -0.1544 -0.1820
    1DIPC   D3A28807   6.161   2.517   3.941  0.0364 -0.1321  0.2434
    1DIPC   C4A28808   5.906   2.257   3.599  0.0747 -0.0334 -0.1312
    1DIPC   C1B28809   6.503   3.347   3.833  0.0899  0.1120  0.1534
    1DIPC   D2B28810   6.619   3.660   4.015  0.1887 -0.1571  0.1874
    1DIPC   D3B28811   6.513   3.563   4.463  0.1614  0.1336 -0.3829
    1DIPC   C4B28812   6.550   3.873   4.719  0.0859  0.2813  0.0076
    1DIPC   NC328813   7.292   8.375   3.312  0.3931 -0.1619 -0.0211
    1DIPC   PO428814   7.033   8.891   3.193  0.0905  0.1130 -0.2087
    1DIPC   GL128815   6.981   9.182   3.573  0.1546  0.3244 -0.1420
    1DIPC   GL228816   6.971   9.433   3.482 -0.2624  0.0725 -0.1389
    1DIPC   C1A28817   7.100   9.029   3.999  0.2958 -0.0338  0.0870
    1DIPC   D2A28818   7.310   9.040   4.473  0.1233  0.1895 -0.2854
    1DIPC   D3A28819   7.184   8.776   4.887  0.0431 -0.0553 -0.0192
    1DIPC   C4A28820   7.274   8.331   4.903 -0.0446 -0.0877 -0.0333
    1DIPC   C1B28821   7.142   9.653   3.900  0.2562 -0.0916 -0.0237
    1DIPC   D2B28822   7.377   9.512   4.156 -0.1070 -0.0736 -0.1506
    1DIPC   D3B28823   7.292   9.534   4.529  0.1925  0.3287 -0.3750
    1DIPC   C4B28824   7.380   9.236   4.916 -0.0731  0.1400 -0.1777
    1DIPC   NC328825   7.090  13.948   2.704 -0.1045 -0.1748  0.0378
    1DIPC   PO428826   7.596  14.102   2.574  0.0435  0.1165  0.1813
    1DIPC   GL128827   7.725  14.163   2.964 -0.0438  0.0952  0.0028
    1DIPC   GL228828   7.480  14.248   3.076 -0.0923 -0.1610 -0.0786
    1DIPC   C1A28829   8.156  14.357   2.862  0.3939  0.3090 -0.0262
    1DIPC   D2A28830   8.435  14.632   2.788  0.0990  0.0019 -0.0320
    1DIPC   D3A28831   8.735  14.405   2.937 -0.1874  0.1071 -0.0102
    1DIPC   C4A28832   8.834  14.442   3.407 -0.2117 -0.0389  0.0512
    1DIPC   C1B28833   7.379  14.253   3.423 -0.0051 -0.0216 -0.0382
    1DIPC   D2B28834   7.069  14.275   3.856 -0.1282 -0.2789 -0.2409
    1DIPC   D3B28835   7.012  14.631   3.574  0.4447  0.0728  0.1964
    1DIPC   C4B28836   6.823  14.966   3.648 -0.0706  0.1447  0.3095
    1DIPC   NC328837  25.531  10.999   2.724 -0.1130 -0.1199  0.2516
    1DIPC   PO428838  25.586  10.632   3.097 -0.0975 -0.0552  0.1698
    1DIPC   GL128839  25.667  10.430   3.528  0.1186  0.0158  0.1074
    1DIPC   GL228840  25.940  10.022   3.548  0.0453  0.1044  0.0312
    1DIPC   C1A28841  25.886  10.402   3.909 -0.2496 -0.1847 -0.2272
    1DIPC   D2A28842  25.968  10.485   4.419 -0.1131  0.1247  0.2717
    1DIPC   D3A28843  25.968  10.061   4.530 -0.1324 -0.0448  0.0547
    1DIPC   C4A28844  26.292  10.007   4.764 -0.2352 -0.2093 -0.0126
    1DIPC   C1B28845  25.569  10.042   3.840  0.1837  0.0040  0.0289
    1DIPC   D2B28846  25.383   9.677   4.020  0.0523  0.1562  0.0140
    1DIPC   D3B28847  25.308   9.732   4.438  0.0530  0.0153 -0.0995
    1DIPC   C4B28848  25.035   9.730   4.767  0.0585  0.1131 -0.3148
    1DIPC   NC328849   1.961  29.339   2.033  0.1094  0.0287 -0.0073
    1DIPC   PO428850   1.660  29.109   2.188 -0.1320  0.1133 -0.0690
    1DIPC   GL128851   1.768  28.959   2.530  0.0291 -0.3559 -0.3404
    1DIPC   GL228852   1.901  29.291   2.819 -0.0210  0.0213 -0.1055
    1DIPC   C1A28853   1.856  28.813   2.867  0.1605  0.0231 -0.0751
    1DIPC   D2A28854   1.898  28.953   3.363  0.0478  0.3364  0.3118
    1DIPC   D3A28855   1.754  28.602   3.617 -0.0703 -0.0605  0.0267
    1DIPC   C4A28856   1.584  28.192   3.763 -0.0251  0.1863  0.0329
    1DIPC   C1B28857   2.210  29.402   2.955  0.1595 -0.0234  0.1193
    1DIPC   D2B28858   2.425  29.355   3.372 -0.1017 -0.1420  0.2675
    1DIPC   D3B28859   2.093  29.252   3.642  0.2010  0.2064 -0.0146
    1DIPC   C4B28860   2.189  29.322   4.107 -0.0583 -0.2167  0.2965
    1DIPC   NC328861  24.095   5.236   3.288  0.1066 -0.1093 -0.0198
    1DIPC   PO428862  23.992   5.522   3.682  0.1313  0.2454  0.0190
    1DIPC   GL128863  23.982   5.394   4.140 -0.1358 -0.2588  0.0068
    1DIPC   GL228864  23.727   5.266   4.402 -0.0304  0.0015  0.0447
    1DIPC   C1A28865  24.084   5.477   4.618  0.0569  0.2803 -0.3003
    1DIPC   D2A28866  23.998   5.463   5.032 -0.1734 -0.0714 -0.1232
    1DIPC   D3A28867  24.223   5.355   5.335 -0.0647  0.0595 -0.0231
    1DIPC   C4A28868  24.068   5.375   5.735  0.1370  0.4540 -0.0628
    1DIPC   C1B28869  23.580   5.249   4.842  0.0084  0.1317  0.0678
    1DIPC   D2B28870  23.711   5.120   5.268  0.0163  0.1026 -0.1081
    1DIPC   D3B28871  23.648   5.523   5.409  0.0825 -0.3641 -0.1278
    1DIPC   C4B28872  23.801   5.843   5.601  0.4076  0.2240 -0.2817
    1DIPC   NC328873   0.177   9.330   3.102  0.1554 -0.0120 -0.0163
    1DIPC   PO428874   0.339   9.640   2.822 -0.4464 -0.1654 -0.3628
    1DIPC   GL128875   0.525   9.710   3.189 -0.0131 -0.0663  0.1138
    1DIPC   GL228876   0.529  10.085   3.178 -0.1727  0.1047 -0.0336
    1DIPC   C1A28877   0.496   9.774   3.646  0.0925 -0.4391  0.2587
    1DIPC   D2A28878   0.309  10.054   3.960  0.0638 -0.1374  0.0783
    1DIPC   D3A28879   0.715   9.987   4.062 -0.0063 -0.1024  0.1750
    1DIPC   C4A28880   1.034  10.357   4.147  0.2253  0.1653  0.2189
    1DIPC   C1B28881   0.638  10.269   3.592  0.2504  0.0093  0.1863
    1DIPC   D2B28882   0.539  10.492   3.996  0.0240 -0.2958 -0.0863
    1DIPC   D3B28883   0.597  10.322   4.373  0.4155  0.1407  0.1187
    1DIPC   C4B28884   0.213  10.203   4.664 -0.1866 -0.3023  0.2798
    1DIPC   NC328885   8.258   9.658   3.095  0.0904 -0.0584  0.5031
    1DIPC   PO428886   8.203   9.266   2.997  0.2172 -0.0417 -0.1000
    1DIPC   GL128887   8.317   9.304   3.444  0.0230 -0.0050  0.0471
    1DIPC   GL228888   8.588   9.192   3.546 -0.3093  0.1292 -0.2023
    1DIPC   C1A28889   8.147   9.028   3.829  0.1785 -0.0452 -0.0268
    1DIPC   D2A28890   8.226   8.791   4.191 -0.2058 -0.0938 -0.0566
    1DIPC   D3A28891   8.716   9.030   4.162 -0.0196  0.1061 -0.1825
    1DIPC   C4A28892   8.948   9.164   4.543  0.1326 -0.1824 -0.1086
    1DIPC   C1B28893   8.505   9.445   3.944  0.0804 -0.1742 -0.1928
    1DIPC   D2B28894   8.411   9.340   4.364 -0.1335 -0.1716  0.0010
    1DIPC   D3B28895   7.981   9.292   4.198  0.0798  0.1757 -0.0803
    1DIPC   C4B28896   7.942   9.473   3.761 -0.0687  0.2830 -0.1120
    1DIPC   NC328897  11.568   7.900   3.143  0.1521 -0.1787  0.0157
    1DIPC   PO428898  11.496   7.586   3.417 -0.0792  0.2265  0.0521
    1DIPC   GL128899  11.523   7.532   3.885  0.0171 -0.3824  0.0577
    1DIPC   GL228900  11.815   7.476   3.940 -0.1925  0.0341  0.4051
    1DIPC   C1A28901  11.367   7.791   4.198  0.0964  0.0940 -0.1687
    1DIPC   D2A28902  11.271   7.600   4.688 -0.0742 -0.2108  0.4110
    1DIPC   D3A28903  11.269   7.859   4.994 -0.0178  0.1024 -0.0653
    1DIPC   C4A28904  11.519   7.723   5.213  0.1731  0.1478  0.1217
    1DIPC   C1B28905  11.700   7.457   4.366  0.2995  0.3393  0.1076
    1DIPC   D2B28906  11.741   7.711   4.662 -0.1266 -0.1919  0.1653
    1DIPC   D3B28907  11.816   7.986   4.952 -0.0609 -0.2321  0.2219
    1DIPC   C4B28908  11.473   8.244   5.207  0.0670  0.1080  0.3559
    1DIPC   NC328909   1.637  21.206   2.754  0.1089 -0.3029 -0.0278
    1DIPC   PO428910   1.997  21.043   2.696  0.0586  0.0300 -0.0953
    1DIPC   GL128911   1.822  20.715   2.982  0.0563  0.2478 -0.1283
    1DIPC   GL228912   1.681  20.337   2.890  0.1170 -0.4835  0.1530
    1DIPC   C1A28913   1.707  20.577   3.417  0.3411 -0.2185  0.5589
    1DIPC   D2A28914   1.301  20.606   3.625 -0.2036  0.0988 -0.1656
    1DIPC   D3A28915   1.275  20.312   3.276 -0.1206  0.3629 -0.3208
    1DIPC   C4A28916   1.112  19.875   3.254  0.1881 -0.0703 -0.1085
    1DIPC   C1B28917   2.075  20.335   3.217  0.1064 -0.1145 -0.1642
    1DIPC   D2B28918   2.109  20.108   3.684 -0.0478 -0.0534 -0.1193
    1DIPC   D3B28919   2.556  19.970   3.798 -0.1536 -0.0008  0.0087
    1DIPC   C4B28920   2.596  20.175   4.239 -0.1253 -0.0102  0.0099
    1DIPC   NC328921  26.637  25.521   2.505  0.0117  0.1384  0.1861
    1DIPC   PO428922  26.590  25.373   2.979  0.0104 -0.2275  0.1070
    1DIPC   GL128923  26.742  25.454   3.435 -0.1664 -0.4571  0.1891
    1DIPC   GL228924  26.851  25.848   3.513  0.1419 -0.1062  0.0802
    1DIPC   C1A28925  26.457  25.533   3.793 -0.0241  0.1189  0.3076
    1DIPC   D2A28926  26.371  25.767   4.254  0.1070  0.1750  0.3099
    1DIPC   D3A28927  26.065  25.961   4.001 -0.1800  0.1399 -0.3229
    1DIPC   C4A28928  25.970  25.691   3.641  0.1114  0.1053  0.1914
    1DIPC   C1B28929  27.200  25.811   3.430 -0.2431 -0.2842  0.2061
    1DIPC   D2B28930  27.549  25.697   3.300  0.1473 -0.0470  0.1852
    1DIPC   D3B28931  27.740  25.352   3.535  0.1095  0.1337 -0.0277
    1DIPC   C4B28932  28.151  25.217   3.734 -0.0059 -0.2033 -0.1199
    1DIPC   NC328933   5.898  28.813   2.197 -0.1448 -0.0988 -0.3436
    1DIPC   PO428934   5.521  28.947   2.439  0.2824  0.1081  0.1915
    1DIPC   GL128935   5.272  28.861   2.878  0.1889  0.0001 -0.2463
    1DIPC   GL228936   4.985  29.033   2.922  0.1614  0.0679  0.2510
    1DIPC   C1A28937   5.212  28.884   3.348 -0.0886  0.2788  0.1216
    1DIPC   D2A28938   5.247  28.583   3.773 -0.3131 -0.2232 -0.1008
    1DIPC   D3A28939   4.892  28.581   3.948 -0.1043 -0.0936 -0.0869
    1DIPC   C4A28940   4.582  28.757   3.828  0.1063  0.0583 -0.0720
    1DIPC   C1B28941   4.776  29.091   3.372  0.0565  0.0926 -0.1089
    1DIPC   D2B28942   4.477  29.217   3.607 -0.2735  0.0548 -0.1543
    1DIPC   D3B28943   4.587  29.655   3.633  0.3101  0.0923 -0.0714
    1DIPC   C4B28944   4.721   0.098   3.311 -0.2316 -0.2414  0.2293
    1DIPC   NC328945   7.989  14.549   1.895 -0.0878  0.0529 -0.0682
    1DIPC   PO428946   7.654  14.659   2.216 -0.1448 -0.2308  0.2770
    1DIPC   GL128947   7.730  14.692   2.625 -0.0157 -0.1270  0.4743
    1DIPC   GL228948   7.498  14.757   2.967 -0.0722  0.0664  0.0090
    1DIPC   C1A28949   8.015  14.793   2.996 -0.0442 -0.2470 -0.1793
    1DIPC   D2A28950   7.998  14.887   3.412  0.1056  0.2672  0.2524
    1DIPC   D3A28951   8.281  15.173   3.377 -0.2703  0.1206 -0.2219
    1DIPC   C4A28952   8.615  15.264   3.577 -0.0834 -0.0369 -0.0567
    1DIPC   C1B28953   7.544  14.735   3.463  0.2485  0.0189 -0.1900
    1DIPC   D2B28954   7.460  14.558   3.824  0.2727 -0.4557 -0.1578
    1DIPC   D3B28955   7.323  14.544   4.224  0.1216  0.2074  0.1711
    1DIPC   C4B28956   7.196  14.152   4.352  0.0009  0.1067  0.3125
    1DIPC   NC328957   3.872  11.229   2.697 -0.2692 -0.1825 -0.1974
    1DIPC   PO428958   3.426  11.142   2.685  0.3873  0.4614 -0.2691
    1DIPC   GL128959   3.257  11.175   3.064 -0.1538 -0.0002  0.2155
    1DIPC   GL228960   3.055  11.414   3.067  0.1063 -0.4184 -0.1247
    1DIPC   C1A28961   2.880  11.028   3.263  0.2057  0.0021 -0.0466
    1DIPC   D2A28962   2.530  10.974   3.637 -0.0487 -0.4069  0.1323
    1DIPC   D3A28963   2.854  10.955   3.932 -0.2486 -0.0858  0.0633
    1DIPC   C4A28964   3.138  10.659   4.040 -0.1905 -0.3895  0.1827
    1DIPC   C1B28965   3.249  11.718   3.306  0.1212 -0.0205 -0.1734
    1DIPC   D2B28966   3.420  11.647   3.635  0.1666  0.2585 -0.1573
    1DIPC   D3B28967   3.636  11.494   4.046 -0.0295  0.1270  0.5313
    1DIPC   C4B28968   3.622  11.615   4.462 -0.0614 -0.2049  0.1505
    1DIPC   NC328969   8.923  10.207   2.821  0.0316  0.1103 -0.1113
    1DIPC   PO428970   9.353  10.460   2.908 -0.0973  0.0071 -0.1858
    1DIPC   GL128971   9.719  10.446   3.242  0.1813  0.0617 -0.3196
    1DIPC   GL228972   9.511  10.214   3.430 -0.0787  0.0398 -0.2415
    1DIPC   C1A28973   9.966  10.367   3.612  0.2305 -0.2530 -0.0181
    1DIPC   D2A28974   9.799  10.450   4.085 -0.0931 -0.1852 -0.0118
    1DIPC   D3A28975   9.653  10.136   4.409  0.0416  0.2749 -0.0907
    1DIPC   C4A28976   9.521  10.265   4.832  0.0888 -0.1118 -0.1590
    1DIPC   C1B28977   9.681   9.958   3.781  0.0558 -0.1075 -0.0099
    1DIPC   D2B28978   9.686   9.829   4.037  0.2506  0.1456  0.3642
    1DIPC   D3B28979   9.888   9.642   4.447  0.3350 -0.0031 -0.4450
    1DIPC   C4B28980  10.162   9.445   4.801 -0.0005  0.2417  0.1236
    1DIPC   NC328981   6.991   7.991   2.934 -0.1243  0.0570  0.0289
    1DIPC   PO428982   7.348   7.800   3.089  0.0191 -0.1381 -0.2300
    1DIPC   GL128983   7.439   7.891   3.435 -0.2619  0.1898 -0.0376
    1DIPC   GL228984   7.637   8.165   3.611 -0.2144  0.0722  0.0230
    1DIPC   C1A28985   7.502   7.594   3.745 -0.4645  0.0122 -0.1446
    1DIPC   D2A28986   7.675   7.374   4.010 -0.0411  0.1025 -0.1191
    1DIPC   D3A28987   7.417   7.547   4.416 -0.4483  0.1635  0.3411
    1DIPC   C4A28988   7.320   7.392   4.851  0.0533  0.0985 -0.2287
    1DIPC   C1B28989   7.381   8.002   4.000 -0.1314  0.0533  0.0907
    1DIPC   D2B28990   7.229   8.111   4.450 -0.0561  0.0207  0.0710
    1DIPC   D3B28991   7.478   7.874   4.832 -0.1878 -0.1430  0.1214
    1DIPC   C4B28992   7.810   8.156   4.932  0.3336 -0.1700 -0.3762
    1DIPC   NC328993  18.548  27.551   2.938 -0.1025 -0.0354  0.0072
    1DIPC   PO428994  18.114  27.683   3.084 -0.2783  0.2718  0.0858
    1DIPC   GL128995  18.330  27.395   3.353  0.0709  0.0548  0.4698
    1DIPC   GL228996  18.604  27.240   3.344  0.4556  0.1538 -0.3029
    1DIPC   C1A28997  18.404  27.254   3.900 -0.0129 -0.0003  0.1465
    1DIPC   D2A28998  18.141  27.388   4.245  0.1654  0.0025  0.0117
    1DIPC   D3A28999  18.064  27.543   4.624  0.0273  0.0867  0.0519
    1DIPC   C4A29000  17.727  27.864   4.676  0.1681 -0.0573  0.0326
    1DIPC   C1B29001  18.875  27.081   3.698 -0.0013  0.0154 -0.2153
    1DIPC   D2B29002  18.832  26.902   4.103  0.1533  0.1500  0.1957
    1DIPC   D3B29003  19.170  26.729   4.301 -0.1716 -0.0358  0.0462
    1DIPC   C4B29004  19.406  26.407   4.229 -0.0622  0.1816  0.1176
    1DIPC   NC329005   0.207   8.308   2.865  0.1024  0.1479  0.5525
    1DIPC   PO429006  29.693   8.391   3.037  0.2529  0.0437  0.2122
    1DIPC   GL129007   0.074   8.411   3.398 -0.0541  0.4597  0.1307
    1DIPC   GL229008   0.241   8.088   3.365 -0.2638 -0.0510  0.0154
    1DIPC   C1A29009   0.179   8.536   3.760 -0.4351 -0.0578  0.1124
    1DIPC   D2A29010   0.014   8.613   4.129  0.1481 -0.3836 -0.1156
    1DIPC   D3A29011   0.218   8.484   4.521 -0.1832 -0.0702  0.1679
    1DIPC   C4A29012   0.479   8.059   4.334 -0.3079  0.4685  0.2055
    1DIPC   C1B29013   0.209   8.023   3.710  0.0227  0.0720  0.0447
    1DIPC   D2B29014   0.035   8.083   4.095 -0.0980  0.0296  0.0613
    1DIPC   D3B29015   0.027   7.734   4.428 -0.2283  0.2652  0.0734
    1DIPC   C4B29016  29.767   7.342   4.404 -0.1188 -0.0002 -0.2150
    1DIPC   NC329017   3.811   1.876   2.841  0.1133 -0.1405 -0.1649
    1DIPC   PO429018   3.682   1.505   2.722 -0.3904  0.0243 -0.2640
    1DIPC   GL129019   3.779   1.303   3.150  0.1931  0.1647  0.3458
    1DIPC   GL229020   3.844   1.571   3.353 -0.0965 -0.0755 -0.2123
    1DIPC   C1A29021   3.937   0.846   3.338  0.1177 -0.0603  0.2619
    1DIPC   D2A29022   3.876   0.359   3.455 -0.2848 -0.0214  0.2482
    1DIPC   D3A29023   3.769   0.113   3.810  0.1679  0.2084 -0.2319
    1DIPC   C4A29024   3.649   0.026   4.262  0.0076 -0.6782  0.0227
    1DIPC   C1B29025   4.082   1.692   3.736 -0.0678 -0.0775 -0.0419
    1DIPC   D2B29026   4.284   2.092   3.978 -0.1318 -0.3048  0.2973
    1DIPC   D3B29027   4.347   2.073   4.434 -0.0172 -0.1353  0.5110
    1DIPC   C4B29028   4.706   1.945   4.644 -0.1508  0.0035 -0.3372
    1DIPC   NC329029  29.273  20.175   2.696  0.1376  0.1109 -0.0465
    1DIPC   PO429030  29.625  20.483   2.840 -0.0749 -0.1826 -0.0413
    1DIPC   GL129031  29.696  20.471   3.202 -0.0574 -0.0342  0.0816
    1DIPC   GL229032  29.760  20.824   3.353  0.1674 -0.1047  0.3649
    1DIPC   C1A29033  29.676  20.459   3.662 -0.0003  0.0655  0.3237
    1DIPC   D2A29034  29.538  20.396   4.042 -0.0776  0.1799  0.1681
    1DIPC   D3A29035  29.550  20.834   3.941  0.3824 -0.0603  0.0457
    1DIPC   C4A29036  29.199  21.125   4.005  0.2825 -0.3542  0.1332
    1DIPC   C1B29037  29.351  21.058   3.521 -0.0450  0.0568  0.1357
    1DIPC   D2B29038  29.053  21.416   3.579  0.1885 -0.1952  0.2000
    1DIPC   D3B29039  29.495  21.586   3.843  0.3099  0.0674 -0.0005
    1DIPC   C4B29040  29.613  21.960   3.872  0.1485  0.2260  0.0383
    1DIPC   NC329041  22.919  24.693   2.905 -0.2763 -0.0324 -0.4600
    1DIPC   PO429042  22.419  24.852   2.800  0.1945  0.0184 -0.0714
    1DIPC   GL129043  22.396  24.745   3.293 -0.0630 -0.2544  0.0752
    1DIPC   GL229044  22.684  24.487   3.309 -0.1365 -0.0914  0.3932
    1DIPC   C1A29045  22.190  24.447   3.469 -0.2738  0.0156 -0.1351
    1DIPC   D2A29046  22.100  24.213   3.796 -0.1062  0.2387 -0.2898
    1DIPC   D3A29047  22.244  24.142   4.224  0.2297 -0.1963  0.3463
    1DIPC   C4A29048  22.507  23.903   4.500 -0.0261 -0.2221  0.0697
    1DIPC   C1B29049  22.562  24.390   3.780  0.1315 -0.0801  0.1480
    1DIPC   D2B29050  22.422  24.612   4.090 -0.2973  0.1892  0.1117
    1DIPC   D3B29051  22.038  24.742   3.890 -0.0567  0.1993 -0.1572
    1DIPC   C4B29052  21.957  24.894   3.507  0.1604 -0.1150  0.1276
    1DIPC   NC329053  18.787  24.270   1.907 -0.1675  0.0503  0.0770
    1DIPC   PO429054  19.204  24.111   1.704  0.1717 -0.0715 -0.1299
    1DIPC   GL129055  19.177  24.109   2.179  0.0052  0.1934 -0.0702
    1DIPC   GL229056  18.925  23.903   2.317  0.1620 -0.6269  0.0484
    1DIPC   C1A29057  19.128  24.244   2.606 -0.2527 -0.2113  0.2212
    1DIPC   D2A29058  19.206  24.353   2.932  0.1126 -0.5227 -0.0975
    1DIPC   D3A29059  19.357  24.560   3.367  0.0976 -0.0591  0.1000
    1DIPC   C4A29060  19.696  24.844   3.345 -0.2354 -0.1140 -0.0951
    1DIPC   C1B29061  18.923  23.775   2.771 -0.1370 -0.2136 -0.0924
    1DIPC   D2B29062  18.798  24.088   2.969  0.1160 -0.0947 -0.0011
    1DIPC   D3B29063  18.866  24.391   3.432  0.4476  0.1593  0.0577
    1DIPC   C4B29064  18.704  24.793   3.524 -0.4412 -0.1999  0.1991
    1DIPC   NC329065  28.347   1.872   2.222  0.2108  0.0425 -0.1410
    1DIPC   PO429066  28.255   1.591   2.611 -0.1187  0.0299  0.2726
    1DIPC   GL129067  28.319   1.588   3.030  0.0181 -0.0610 -0.0567
    1DIPC   GL229068  28.114   1.839   3.085  0.1063  0.0067  0.0047
    1DIPC   C1A29069  28.488   1.401   3.440 -0.5168 -0.0461  0.0763
    1DIPC   D2A29070  28.615   1.140   3.739 -0.2210 -0.0243 -0.0294
    1DIPC   D3A29071  28.798   0.962   4.155 -0.2500 -0.1370 -0.3179
    1DIPC   C4A29072  28.812   0.953   4.626  0.4568  0.1821  0.3657
    1DIPC   C1B29073  28.011   1.560   3.471 -0.0934  0.2532 -0.1487
    1DIPC   D2B29074  28.180   1.521   3.863  0.1305  0.1501  0.3142
    1DIPC   D3B29075  27.844   1.300   4.061  0.0268 -0.0533 -0.1680
    1DIPC   C4B29076  27.935   1.188   4.451  0.1073 -0.3356 -0.1119
    1DIPC   NC329077   9.244  20.505   1.930  0.0446 -0.1010 -0.0845
    1DIPC   PO429078   9.188  20.601   2.434 -0.0886  0.0286 -0.0706
    1DIPC   GL129079   9.020  20.732   2.841 -0.0289 -0.0866  0.1271
    1DIPC   GL229080   8.832  20.544   2.968  0.3671 -0.2403  0.1088
    1DIPC   C1A29081   8.973  20.917   3.272  0.1250 -0.0614 -0.0663
    1DIPC   D2A29082   8.925  20.765   3.728 -0.0652  0.2653  0.0930
    1DIPC   D3A29083   8.578  21.022   3.859 -0.0745 -0.0745  0.1093
    1DIPC   C4A29084   8.214  21.208   3.923 -0.2549  0.0530 -0.4010
    1DIPC   C1B29085   9.057  20.406   3.387 -0.0608  0.0522  0.0983
    1DIPC   D2B29086   8.907  20.239   3.812 -0.1265 -0.0727 -0.0319
    1DIPC   D3B29087   9.051  20.542   4.162  0.1588 -0.3462 -0.2288
    1DIPC   C4B29088   9.028  20.985   4.161 -0.1938 -0.1990 -0.0474
    1DIPC   NC329089   1.419  12.373   2.889  0.0083  0.0611  0.1579
    1DIPC   PO429090   1.034  12.479   2.768 -0.1104  0.0999 -0.3295
    1DIPC   GL129091   1.031  12.411   3.274  0.0119 -0.0260  0.1501
    1DIPC   GL229092   1.279  12.475   3.363  0.1416 -0.0197 -0.0976
    1DIPC   C1A29093   0.929  12.209   3.659  0.3276 -0.0412 -0.2011
    1DIPC   D2A29094   0.949  12.288   4.077  0.0604 -0.0413  0.0474
    1DIPC   D3A29095   0.812  11.858   4.100 -0.1492 -0.0504 -0.0413
    1DIPC   C4A29096   0.724  11.650   3.761 -0.0541  0.0161 -0.1771
    1DIPC   C1B29097   1.337  12.551   3.787 -0.0083 -0.0362  0.3787
    1DIPC   D2B29098   1.434  12.390   4.247 -0.1624  0.0110 -0.2871
    1DIPC   D3B29099   1.377  12.433   4.690 -0.0770  0.1850  0.0892
    1DIPC   C4B29100   1.012  12.476   4.985 -0.0362 -0.0237  0.0940
    1DIPC   NC329101  20.621   2.103   3.933 -0.0888 -0.0760 -0.1310
    1DIPC   PO429102  20.385   1.734   3.964 -0.0826  0.2826 -0.0410
    1DIPC   GL129103  20.492   1.677   4.319  0.3983  0.1335 -0.0544
    1DIPC   GL229104  20.572   1.884   4.460 -0.3255 -0.0304  0.2690
    1DIPC   C1A29105  20.653   1.367   4.470  0.0462 -0.1096  0.1488
    1DIPC   D2A29106  20.748   0.930   4.547 -0.4288 -0.2537 -0.0073
    1DIPC   D3A29107  20.515   0.941   4.767  0.3168 -0.1796 -0.1008
    1DIPC   C4A29108  20.525   0.897   5.131 -0.1005 -0.0267  0.1552
    1DIPC   C1B29109  20.592   1.871   4.934 -0.0256 -0.0448  0.0551
    1DIPC   D2B29110  20.606   1.648   5.292 -0.1578  0.2920 -0.1056
    1DIPC   D3B29111  21.021   1.693   5.158 -0.0390 -0.1471  0.0113
    1DIPC   C4B29112  20.967   1.775   4.706  0.0624  0.0662  0.2316
    1DIPC   NC329113  22.072  19.610   2.055  0.1171 -0.1460 -0.0481
    1DIPC   PO429114  22.231  19.848   2.374 -0.0847  0.0919  0.2350
    1DIPC   GL129115  22.577  19.718   2.653 -0.1657 -0.1422  0.2430
    1DIPC   GL229116  22.647  19.401   2.658 -0.0033 -0.1632  0.1175
    1DIPC   C1A29117  23.040  19.596   2.843 -0.0056 -0.0984  0.1868
    1DIPC   D2A29118  23.291  19.719   3.228 -0.1344 -0.3658 -0.1824
    1DIPC   D3A29119  23.530  19.509   3.354 -0.2535 -0.1399  0.2758
    1DIPC   C4A29120  23.687  19.510   3.750 -0.1385 -0.2177 -0.2137
    1DIPC   C1B29121  22.622  19.364   3.161  0.0675 -0.0974  0.3036
    1DIPC   D2B29122  22.340  19.337   3.513  0.1922  0.1381 -0.0759
    1DIPC   D3B29123  22.484  19.003   3.614 -0.1215  0.1771  0.3937
    1DIPC   C4B29124  22.459  18.613   3.482  0.1482  0.0271  0.0154
    1DIPC   NC329125  14.975   1.160   3.662  0.2541 -0.2355 -0.1847
    1DIPC   PO429126  14.832   1.495   3.924 -0.1058 -0.1753 -0.0832
    1DIPC   GL129127  14.736   1.375   4.309 -0.1128 -0.1840 -0.0861
    1DIPC   GL229128  14.637   1.734   4.414 -0.1991  0.1344 -0.1676
    1DIPC   C1A29129  14.860   1.097   4.604 -0.0560 -0.0870  0.0332
    1DIPC   D2A29130  14.816   0.675   4.883  0.3565 -0.1938  0.3822
    1DIPC   D3A29131  14.518   0.553   4.538  0.1865 -0.2480 -0.3330
    1DIPC   C4A29132  14.529   0.511   4.023 -0.2513  0.0368  0.1513
    1DIPC   C1B29133  14.838   1.678   4.831 -0.0133 -0.0734 -0.0777
    1DIPC   D2B29134  14.651   1.658   5.226  0.1305  0.0526  0.0510
    1DIPC   D3B29135  14.249   1.405   5.178  0.0010 -0.1277 -0.1535
    1DIPC   C4B29136  13.898   1.615   5.320  0.0807 -0.0453  0.0524
    1DIPC   NC329137   7.148  19.038   2.057  0.2278 -0.1430 -0.1661
    1DIPC   PO429138   7.057  18.684   2.261 -0.2610 -0.0901 -0.3040
    1DIPC   GL129139   7.056  18.700   2.725  0.0949 -0.3897  0.4630
    1DIPC   GL229140   7.075  19.025   2.936 -0.1117  0.0964 -0.1341
    1DIPC   C1A29141   6.861  18.558   3.062 -0.0300  0.3294 -0.0247
    1DIPC   D2A29142   6.694  18.745   3.527 -0.0928  0.1714  0.0839
    1DIPC   D3A29143   7.019  18.658   3.968  0.2465  0.2013 -0.1401
    1DIPC   C4A29144   7.414  18.437   4.090 -0.1581 -0.3877  0.0016
    1DIPC   C1B29145   7.138  19.001   3.442  0.1854  0.0563  0.0596
    1DIPC   D2B29146   7.196  19.169   3.800  0.0777  0.0899 -0.2625
    1DIPC   D3B29147   7.340  19.435   4.086 -0.0883 -0.0147  0.0965
    1DIPC   C4B29148   7.723  19.409   4.305  0.1485 -0.1644  0.1222
    1DIPC   NC329149  25.629  25.246   2.932 -0.0457 -0.0374 -0.1460
    1DIPC   PO429150  25.438  24.842   3.079  0.0223  0.0431 -0.0068
    1DIPC   GL129151  25.319  25.070   3.356  0.1639  0.0766  0.2773
    1DIPC   GL229152  25.609  25.212   3.514  0.1465 -0.0788 -0.2441
    1DIPC   C1A29153  25.134  25.317   3.751  0.1301 -0.1307  0.1624
    1DIPC   D2A29154  25.245  25.584   4.226  0.1831 -0.3392 -0.0096
    1DIPC   D3A29155  25.350  25.264   4.365 -0.1421 -0.2177 -0.0422
    1DIPC   C4A29156  25.000  25.077   4.590 -0.2555 -0.2173 -0.2523
    1DIPC   C1B29157  25.676  25.417   3.947 -0.0270 -0.1337  0.0428
    1DIPC   D2B29158  25.734  25.594   4.292 -0.0458 -0.1060 -0.0070
    1DIPC   D3B29159  25.882  25.362   4.535  0.2596 -0.1325 -0.1266
    1DIPC   C4B29160  26.290  25.109   4.507  0.0666  0.2599  0.0551
    1DIPC   NC329161  18.593  26.965   2.177 -0.1319  0.2155 -0.2497
    1DIPC   PO429162  18.739  26.627   2.452 -0.0343 -0.0823 -0.0590
    1DIPC   GL129163  18.669  26.437   2.908 -0.2003 -0.0603  0.0645
    1DIPC   GL229164  18.360  26.754   2.792 -0.1947 -0.0251 -0.2064
    1DIPC   C1A29165  18.345  26.295   3.059  0.0719  0.0747  0.0156
    1DIPC   D2A29166  17.944  26.079   3.355 -0.3518  0.0176 -0.1449
    1DIPC   D3A29167  18.132  25.685   3.511  0.0860  0.0024  0.0277
    1DIPC   C4A29168  18.253  25.519   3.989  0.0650 -0.1596 -0.1886
    1DIPC   C1B29169  18.400  26.795   3.176  0.1823 -0.1585  0.2396
    1DIPC   D2B29170  18.460  26.767   3.548 -0.4774 -0.2302  0.0663
    1DIPC   D3B29171  18.861  26.516   3.397 -0.1409  0.1649  0.1710
    1DIPC   C4B29172  19.005  26.846   3.234 -0.0004  0.1961 -0.1348
    1DIPC   NC329173   8.341  20.473   1.814 -0.2469  0.3604  0.1568
    1DIPC   PO429174   8.342  20.288   2.223  0.2849  0.0881 -0.2147
    1DIPC   GL129175   8.330  20.203   2.712  0.0353  0.3098 -0.1604
    1DIPC   GL229176   8.597  20.074   2.863 -0.0065  0.1959 -0.1139
    1DIPC   C1A29177   7.934  20.152   3.079 -0.1261  0.2467 -0.2135
    1DIPC   D2A29178   7.867  20.395   3.545 -0.1395  0.2581  0.4131
    1DIPC   D3A29179   7.808  19.978   3.502 -0.2800  0.1950  0.0601
    1DIPC   C4A29180   7.666  19.741   3.935  0.1257 -0.4526 -0.1443
    1DIPC   C1B29181   8.427  20.223   3.248  0.1752 -0.1597  0.1378
    1DIPC   D2B29182   8.464  20.040   3.625  0.0314  0.0572 -0.1306
    1DIPC   D3B29183   8.232  20.099   3.931 -0.0944  0.0572 -0.0354
    1DIPC   C4B29184   8.101  19.730   4.232 -0.0820 -0.1076  0.2913
    1CHOL   ROH29185  20.746  19.651   5.568 -0.1299  0.4000  0.0299
    1CHOL    R129186  20.719  19.718   5.294  0.0560  0.4506  0.0226
    1CHOL    R229187  20.929  19.814   5.143  0.2751  0.0733  0.0730
    1CHOL    R329188  20.865  19.606   4.980 -0.0631  0.1823  0.0593
    1CHOL    R429189  21.000  19.799   4.805  0.2606 -0.0233  0.0741
    1CHOL    R529190  20.804  19.710   4.773  0.1101  0.2977  0.0633
    1CHOL    C129191  20.980  19.595   4.455 -0.0652  0.0227  0.0618
    1CHOL    C229192  20.796  19.547   4.094 -0.2838  0.0916 -0.2506
    1CHOL   ROH29193   9.116   1.326   3.866 -0.0221 -0.0911  0.1309
    1CHOL    R129194   9.165   1.170   4.097  0.0579  0.0373  0.2029
    1CHOL    R229195   9.187   1.280   4.350 -0.3159  0.1358  0.2040
    1CHOL    R329196   8.993   1.100   4.410 -0.0754 -0.1709  0.0838
    1CHOL    R429197   9.078   1.207   4.670 -0.3762 -0.0744  0.1364
    1CHOL    R529198   9.069   0.997   4.613 -0.0264 -0.0818  0.1062
    1CHOL    C129199   8.833   0.996   4.913 -0.1856 -0.4847 -0.0156
    1CHOL    C229200   9.172   1.101   5.147 -0.0261 -0.1023  0.2159
    1CHOL   ROH29201  22.596   1.664   7.021 -0.0982  0.1630  0.1139
    1CHOL    R129202  22.477   1.698   6.767 -0.0983  0.1912  0.1163
    1CHOL    R229203  22.301   1.905   6.711 -0.1406  0.1739  0.1508
    1CHOL    R329204  22.475   1.954   6.508 -0.1377  0.2448  0.1720
    1CHOL    R429205  22.242   2.122   6.450 -0.1746  0.1665  0.1535
    1CHOL    R529206  22.335   1.978   6.315 -0.1157  0.2111  0.1589
    1CHOL    C129207  22.370   2.295   6.106 -0.1915  0.2287  0.1749
    1CHOL    C229208  22.046   2.342   5.875  0.2024  0.0663 -0.2967
    1CHOL   ROH29209  15.335  14.544   2.784  0.0068 -0.1480 -0.0061
    1CHOL    R129210  15.478  14.611   3.019  0.0715 -0.0879 -0.0633
    1CHOL    R229211  15.356  14.635   3.266  0.1318  0.0294 -0.0482
    1CHOL    R329212  15.545  14.455   3.341  0.1132  0.0213 -0.0176
    1CHOL    R429213  15.415  14.533   3.591 -0.0057 -0.0559 -0.0486
    1CHOL    R529214  15.628  14.539   3.549  0.0157 -0.0279  0.0447
    1CHOL    C129215  15.627  14.305   3.851 -0.1033 -0.1131 -0.0201
    1CHOL    C229216  15.543  14.370   4.330 -0.0767 -0.0674 -0.0337
    1CHOL   ROH29217  19.855  14.525   6.085  0.1424  0.1004 -0.1466
    1CHOL    R129218  19.990  14.499   5.837 -0.0755  0.0441 -0.2616
    1CHOL    R229219  20.110  14.264   5.757  0.0672  0.0941 -0.2017
    1CHOL    R329220  19.954  14.297   5.537 -0.1846 -0.2155 -0.0779
    1CHOL    R429221  20.179  14.133   5.445  0.0313  0.1592 -0.2372
    1CHOL    R529222  20.110  14.320   5.356 -0.3739  0.0285 -0.2164
    1CHOL    C129223  20.073  14.088   5.056 -0.2261 -0.0934 -0.1417
    1CHOL    C229224  20.333  13.958   4.804 -0.0361 -0.0733  0.1415
    1CHOL   ROH29225  17.918  24.250   5.212 -0.0424 -0.3155  0.1872
    1CHOL    R129226  17.792  24.299   4.963  0.0625 -0.0972  0.1762
    1CHOL    R229227  17.934  24.351   4.732  0.1665 -0.1484  0.2315
    1CHOL    R329228  17.787  24.145   4.634 -0.0155  0.0323  0.1149
    1CHOL    R429229  17.936  24.246   4.402  0.0253  0.0777  0.1558
    1CHOL    R529230  17.720  24.218   4.415  0.0014  0.2386  0.1745
    1CHOL    C129231  17.799  23.992   4.119 -0.2274  0.3793  0.0022
    1CHOL    C229232  17.613  24.204   3.871  0.3349  0.0486  0.1845
    1CHOL   ROH29233  25.281  13.636   3.180 -0.2596 -0.2817  0.0907
    1CHOL    R129234  25.401  13.555   3.424 -0.1618 -0.2192  0.0633
    1CHOL    R229235  25.531  13.733   3.591 -0.0173 -0.1923 -0.0782
    1CHOL    R329236  25.360  13.633   3.777  0.0456 -0.0576  0.0547
    1CHOL    R429237  25.557  13.784   3.932  0.0391  0.1531 -0.1312
    1CHOL    R529238  25.500  13.576   3.963  0.1006  0.1632  0.0853
    1CHOL    C129239  25.412  13.721   4.304  0.1308  0.4807 -0.0372
    1CHOL    C229240  25.367  13.576   4.550 -0.0130  0.2652 -0.2673
    1CHOL   ROH29241  21.978  14.269   6.231  0.2857  0.1232 -0.0202
    1CHOL    R129242  21.979  14.295   5.950 -0.0052 -0.0037 -0.0370
    1CHOL    R229243  22.212  14.288   5.800 -0.1314  0.1691 -0.2515
    1CHOL    R329244  22.080  14.091   5.666 -0.0591 -0.0317 -0.0357
    1CHOL    R429245  22.284  14.186   5.478 -0.1733 -0.0818 -0.1837
    1CHOL    R529246  22.070  14.170   5.440 -0.1754 -0.2420 -0.1058
    1CHOL    C129247  22.203  13.943   5.164 -0.1297 -0.4163  0.0583
    1CHOL    C229248  22.214  14.039   4.835 -0.2171 -0.1772 -0.1431
    1CHOL   ROH29249   7.287  11.228   3.547 -0.2443 -0.1749  0.0691
    1CHOL    R129250   7.298  11.327   3.812 -0.1230 -0.0669  0.0251
    1CHOL    R229251   7.144  11.223   4.016 -0.1661  0.1346  0.1014
    1CHOL    R329252   7.384  11.195   4.140 -0.1615  0.0091  0.0648
    1CHOL    R429253   7.186  11.130   4.347 -0.1468 -0.0482  0.0490
    1CHOL    R529254   7.346  11.277   4.362 -0.1123 -0.0997  0.1104
    1CHOL    C129255   7.436  11.050   4.655 -0.1313 -0.2723 -0.0158
    1CHOL    C229256   7.093  10.963   4.920  0.0273  0.1533 -0.3948
    1CHOL   ROH29257  23.231  29.441   6.217 -0.1564  0.1442 -0.0173
    1CHOL    R129258  23.211  29.554   5.958 -0.1785  0.1208 -0.0260
    1CHOL    R229259  23.069  29.785   5.907 -0.0561  0.2019 -0.0079
    1CHOL    R329260  23.305   0.008   5.798 -0.0429  0.0424 -0.1011
    1CHOL    R429261  23.109   0.212   5.715  0.0791  0.2215  0.0484
    1CHOL    R529262  23.242   0.098   5.584 -0.0751  0.1485 -0.0466
    1CHOL    C129263  23.353   0.454   5.500  0.1700  0.0834 -0.0063
    1CHOL    C229264  23.161   0.833   5.273 -0.0622 -0.0727  0.1298
    1CHOL   ROH29265  15.341   6.248   7.635  0.0453  0.0284 -0.2020
    1CHOL    R129266  15.144   6.370   7.473 -0.0662 -0.0903 -0.1565
    1CHOL    R229267  15.206   6.546   7.269 -0.2230  0.0140 -0.1125
    1CHOL    R329268  15.057   6.375   7.120 -0.0952 -0.0673 -0.1502
    1CHOL    R429269  15.117   6.598   6.940 -0.5359  0.1895 -0.0039
    1CHOL    R529270  14.919   6.518   6.986 -0.3977 -0.1306  0.0762
    1CHOL    C129271  14.924   6.469   6.607 -0.5980  0.2154  0.0238
    1CHOL    C229272  14.978   6.319   6.241  0.0647  0.0498 -0.0747
    1CHOL   ROH29273  26.723   7.070   3.283  0.0290 -0.1105  0.0813
    1CHOL    R129274  26.649   6.978   3.540 -0.0045 -0.1720  0.0493
    1CHOL    R229275  26.606   7.149   3.753  0.0837 -0.2326  0.1128
    1CHOL    R329276  26.366   7.023   3.765  0.0240 -0.1253  0.0775
    1CHOL    R429277  26.410   7.124   4.036 -0.1060  0.1114  0.0185
    1CHOL    R529278  26.364   6.919   3.980 -0.1525  0.0732  0.1785
    1CHOL    C129279  26.070   6.990   4.212 -0.2724  0.4124 -0.0696
    1CHOL    C229280  26.184   6.999   4.604  0.2629  0.3387  0.0387
    1CHOL   ROH29281   2.950   7.882   3.817  0.1418 -0.0523 -0.0001
    1CHOL    R129282   2.828   8.030   4.025  0.1586  0.0094 -0.0340
    1CHOL    R229283   2.788   7.927   4.279  0.0590  0.0385 -0.0377
    1CHOL    R329284   2.923   8.151   4.355  0.1362 -0.0147 -0.0182
    1CHOL    R429285   2.804   8.048   4.602 -0.1884  0.1879 -0.0791
    1CHOL    R529286   2.784   8.250   4.523  0.0290  0.1650 -0.2062
    1CHOL    C129287   2.940   8.328   4.862 -0.2601  0.2249 -0.0849
    1CHOL    C229288   2.745   8.164   5.156 -0.1132 -0.0424  0.1429
    1CHOL   ROH29289  13.947   5.601   4.564 -0.0782  0.1591 -0.1389
    1CHOL    R129290  13.955   5.756   4.802  0.1619  0.0331 -0.0617
    1CHOL    R229291  13.732   5.885   4.904  0.3374  0.2615  0.0475
    1CHOL    R329292  13.797   5.746   5.129  0.2139  0.0652 -0.0361
    1CHOL    R429293  13.651   5.980   5.226  0.0803 -0.0731  0.0866
    1CHOL    R529294  13.848   5.914   5.291  0.0504 -0.0766  0.1649
    1CHOL    C129295  13.664   5.905   5.624 -0.1853 -0.4522  0.0310
    1CHOL    C229296  13.340   5.905   5.936 -0.3071  0.1140  0.2004
    1CHOL   ROH29297  24.629  17.650   5.824  0.2226 -0.0299  0.0320
    1CHOL    R129298  24.749  17.576   5.578  0.1621 -0.2219  0.0572
    1CHOL    R229299  24.709  17.329   5.461 -0.2732 -0.1406  0.0083
    1CHOL    R329300  24.633  17.479   5.246  0.0700  0.0433  0.0099
    1CHOL    R429301  24.699  17.216   5.134 -0.1264  0.0276 -0.0560
    1CHOL    R529302  24.779  17.408   5.070  0.1390 -0.0312  0.0997
    1CHOL    C129303  24.622  17.290   4.743  0.2815  0.2983 -0.0919
    1CHOL    C229304  24.227  17.390   4.656  0.1143 -0.0305 -0.3873
    1CHOL   ROH29305  24.280   0.525   6.644  0.1706  0.2308 -0.0207
    1CHOL    R129306  24.302   0.693   6.418  0.1078 -0.0035 -0.2058
    1CHOL    R229307  24.155   0.652   6.187 -0.2707 -0.0097  0.0246
    1CHOL    R329308  24.080   0.911   6.228  0.1537  0.1405 -0.0949
    1CHOL    R429309  23.999   0.854   5.953 -0.3219  0.0015  0.0685
    1CHOL    R529310  24.123   1.020   6.020  0.0134 -0.1081 -0.2566
    1CHOL    C129311  23.838   1.213   5.856  0.0469  0.1490 -0.0182
    1CHOL    C229312  23.573   1.516   5.782 -0.1566  0.2549 -0.3374
    1CHOL   ROH29313  13.129   7.573   7.293  0.0187 -0.0531  0.0730
    1CHOL    R129314  13.092   7.321   7.171  0.0407 -0.0302  0.0171
    1CHOL    R229315  13.294   7.189   7.036  0.0732 -0.0163  0.0466
    1CHOL    R329316  13.231   6.987   7.206  0.0181 -0.0413 -0.0045
    1CHOL    R429317  13.236   6.863   6.940  0.1085 -0.0031 -0.0179
    1CHOL    R529318  13.072   6.854   7.085  0.0615 -0.0258 -0.0752
    1CHOL    C129319  13.143   6.482   7.044  0.0774 -0.0188 -0.1033
    1CHOL    C229320  13.285   6.310   6.703  0.1977 -0.0769  0.2406
    1CHOL   ROH29321  24.690  12.774   6.291 -0.1947  0.2415 -0.0036
    1CHOL    R129322  24.832  12.838   6.055 -0.2398  0.1464 -0.0561
    1CHOL    R229323  24.859  12.660   5.845 -0.3241  0.0816 -0.0096
    1CHOL    R329324  24.755  12.866   5.700 -0.3188  0.0590 -0.0471
    1CHOL    R429325  24.834  12.666   5.500 -0.1094  0.1134 -0.0264
    1CHOL    R529326  24.893  12.876   5.504 -0.1971  0.1399  0.0392
    1CHOL    C129327  24.722  12.863   5.164  0.0208  0.1108 -0.0715
    1CHOL    C229328  24.942  13.003   4.888  0.0343 -0.2423  0.0918
    1CHOL   ROH29329   1.620   8.303   5.429 -0.1216  0.1055 -0.1116
    1CHOL    R129330   1.672   8.254   5.155 -0.1569  0.0916 -0.1161
    1CHOL    R229331   1.507   8.098   4.998 -0.2645  0.2126 -0.1265
    1CHOL    R329332   1.503   8.318   4.839 -0.1193  0.2288 -0.1092
    1CHOL    R429333   1.411   8.101   4.666 -0.2625  0.3016 -0.1263
    1CHOL    R529334   1.574   8.239   4.625 -0.1709  0.1982 -0.1151
    1CHOL    C129335   1.350   8.309   4.324 -0.1251  0.3686 -0.1100
    1CHOL    C229336   1.012   8.254   4.035 -0.1579 -0.0676  0.1916
    1CHOL   ROH29337  17.193  14.231   6.051 -0.0371 -0.0610 -0.0354
    1CHOL    R129338  17.308  14.247   5.793  0.0147  0.0100 -0.0085
    1CHOL    R229339  17.220  14.094   5.581  0.1467 -0.0326 -0.0356
    1CHOL    R329340  17.196  14.335   5.459  0.0429 -0.0405 -0.0309
    1CHOL    R429341  17.144  14.139   5.247  0.1340 -0.0561 -0.0357
    1CHOL    R529342  17.290  14.301   5.241  0.0620  0.0073 -0.0289
    1CHOL    C129343  17.077  14.393   4.938  0.0293 -0.0770 -0.0313
    1CHOL    C229344  16.943  14.301   4.549  0.0687 -0.1191 -0.1208
    1CHOL   ROH29345  14.810   5.351   4.806  0.1039 -0.1612  0.0456
    1CHOL    R129346  14.819   5.280   5.080  0.1102  0.0419  0.0993
    1CHOL    R229347  14.819   5.468   5.282 -0.0878  0.1879 -0.0348
    1CHOL    R329348  14.607   5.324   5.372  0.0150  0.0720  0.0264
    1CHOL    R429349  14.685   5.491   5.600  0.0483  0.0515  0.0342
    1CHOL    R529350  14.660   5.275   5.600  0.1430  0.0383 -0.0087
    1CHOL    C129351  14.407   5.369   5.869  0.2240 -0.1368  0.1318
    1CHOL    C229352  14.462   5.323   6.335 -0.1091 -0.0302  0.3618
    1CHOL   ROH29353   1.370  29.407   2.659 -0.0312  0.0126 -0.1194
    1CHOL    R129354   1.318  29.218   2.862 -0.0990  0.0467 -0.1057
    1CHOL    R229355   1.488  29.178   3.076 -0.0390 -0.1018 -0.1821
    1CHOL    R329356   1.264  29.225   3.222  0.0609  0.0754 -0.0815
    1CHOL    R429357   1.394  28.998   3.356 -0.0237  0.0134 -0.1017
    1CHOL    R529358   1.188  29.007   3.286 -0.0539  0.1363 -0.0037
    1CHOL    C129359   1.128  28.938   3.656  0.0790  0.2467  0.0397
    1CHOL    C229360   1.183  28.501   3.799  0.1249 -0.5053  0.3035
    1CHOL   ROH29361  14.341  12.157   6.471  0.0934  0.3242  0.1251
    1CHOL    R129362  14.305  12.111   6.194  0.1117  0.1390  0.1526
    1CHOL    R229363  14.341  12.310   6.005  0.0756  0.0234  0.0300
    1CHOL    R329364  14.510  12.129   5.894  0.1160 -0.0114  0.1445
    1CHOL    R429365  14.362  12.240   5.667  0.1075 -0.1578  0.0677
    1CHOL    R529366  14.384  12.029   5.717  0.1402 -0.1317  0.1891
    1CHOL    C129367  14.535  12.029   5.366  0.1640 -0.2959  0.1971
    1CHOL    C229368  14.177  12.042   5.131 -0.0640  0.3075 -0.1315
    1CHOL   ROH29369  21.542  13.522   3.199 -0.1128  0.1956 -0.1645
    1CHOL    R129370  21.444  13.510   3.464 -0.0620  0.0703 -0.1512
    1CHOL    R229371  21.494  13.296   3.632  0.2214  0.1241 -0.1652
    1CHOL    R329372  21.588  13.489   3.798  0.0122  0.2347 -0.1707
    1CHOL    R429373  21.488  13.279   3.977  0.3413  0.0674 -0.1650
    1CHOL    R529374  21.434  13.491   3.981  0.0565  0.0014 -0.1250
    1CHOL    C129375  21.572  13.451   4.334  0.2146  0.1382 -0.1701
    1CHOL    C229376  21.534  13.471   4.670 -0.1678  0.0480 -0.0662
    1CHOL   ROH29377  20.533  12.672   3.018 -0.1384  0.1566 -0.1365
    1CHOL    R129378  20.613  12.806   3.254 -0.0379  0.0824 -0.1290
    1CHOL    R229379  20.495  13.040   3.340 -0.1006 -0.0234  0.0708
    1CHOL    R329380  20.459  12.900   3.570  0.1414 -0.1538  0.0335
    1CHOL    R429381  20.529  13.171   3.658 -0.1725 -0.0873  0.1058
    1CHOL    R529382  20.627  12.986   3.719  0.0816  0.0082  0.0131
    1CHOL    C129383  20.515  13.116   4.059  0.0127 -0.2470  0.0912
    1CHOL    C229384  20.377  13.327   4.379  0.0117 -0.2545 -0.1477
    1CHOL   ROH29385  25.719  13.101   6.442 -0.0171  0.0000  0.0109
    1CHOL    R129386  25.867  13.123   6.202 -0.0178 -0.0506  0.0063
    1CHOL    R229387  25.778  13.018   5.963 -0.1711  0.1776 -0.0371
    1CHOL    R329388  25.817  13.272   5.874  0.1206  0.1803  0.0872
    1CHOL    R429389  25.799  13.110   5.630 -0.2472  0.3344 -0.0004
    1CHOL    R529390  25.960  13.247   5.683 -0.0237  0.0893 -0.0138
    1CHOL    C129391  25.849  13.401   5.353 -0.0176  0.4283  0.1376
    1CHOL    C229392  25.960  13.360   4.969  0.2826  0.2442  0.1671
    1CHOL   ROH29393  17.404   4.603   4.591  0.2169  0.1449  0.1739
    1CHOL    R129394  17.276   4.590   4.843  0.1845  0.0423  0.1513
    1CHOL    R229395  17.403   4.496   5.070  0.2330  0.1792  0.1744
    1CHOL    R329396  17.326   4.736   5.173 -0.0133  0.1139  0.1529
    1CHOL    R429397  17.342   4.556   5.405  0.2680  0.1617  0.1849
    1CHOL    R529398  17.171   4.679   5.347  0.1018 -0.0418  0.2126
    1CHOL    C129399  17.235   4.816   5.697  0.0573  0.0902  0.1710
    1CHOL    C229400  17.042   5.011   6.023  0.2782  0.2093 -0.3687
    1CHOL   ROH29401  18.090  19.601   2.616 -0.4418  0.1696 -0.0478
    1CHOL    R129402  18.137  19.467   2.860 -0.2683  0.0164 -0.1623
    1CHOL    R229403  18.129  19.595   3.105  0.0498 -0.1042 -0.0823
    1CHOL    R329404  17.950  19.400   3.165  0.0004 -0.0353 -0.0062
    1CHOL    R429405  18.044  19.498   3.425  0.0050  0.0578 -0.0445
    1CHOL    R529406  18.043  19.291   3.357 -0.0391  0.0280  0.0484
    1CHOL    C129407  17.826  19.258   3.668 -0.0674  0.2169  0.0490
    1CHOL    C229408  17.489  19.240   3.867 -0.1725  0.1913 -0.0118
    1CHOL   ROH29409  17.984   6.104   7.599  0.0800 -0.1542 -0.0593
    1CHOL    R129410  18.009   5.947   7.365  0.0128 -0.0512 -0.1358
    1CHOL    R229411  17.883   6.012   7.128  0.0854  0.1487 -0.1187
    1CHOL    R329412  18.134   5.996   7.026  0.0882  0.0415 -0.0962
    1CHOL    R429413  17.957   5.957   6.795  0.0821  0.2457 -0.1359
    1CHOL    R529414  18.119   5.825   6.859 -0.0005  0.1185 -0.1719
    1CHOL    C129415  18.237   5.909   6.506  0.0829  0.2016 -0.1248
    1CHOL    C229416  18.398   5.637   6.266  0.0940  0.2032 -0.0736
    1CHOL   ROH29417  15.752  13.287   3.021 -0.0330 -0.0162  0.0101
    1CHOL    R129418  15.900  13.215   3.251 -0.0263  0.0652  0.0303
    1CHOL    R229419  15.883  13.354   3.489 -0.2622 -0.0411  0.0714
    1CHOL    R329420  15.825  13.109   3.591 -0.0176 -0.1466 -0.0298
    1CHOL    R429421  15.873  13.278   3.826 -0.4425 -0.1106  0.0520
    1CHOL    R529422  15.969  13.088   3.781 -0.1397  0.0197  0.0913
    1CHOL    C129423  15.811  13.003   4.118 -0.3178 -0.2500 -0.0543
    1CHOL    C229424  15.779  13.044   4.437  0.0777 -0.0956  0.0544
    1CHOL   ROH29425  21.982   9.722   3.266 -0.0551  0.1694 -0.0463
    1CHOL    R129426  21.843   9.858   3.471 -0.1535  0.0467 -0.0293
    1CHOL    R229427  21.686   9.727   3.657 -0.0714 -0.0885 -0.0488
    1CHOL    R329428  21.843   9.858   3.835 -0.1605 -0.0072 -0.0303
    1CHOL    R429429  21.633   9.733   3.998 -0.0651 -0.1743 -0.0465
    1CHOL    R529430  21.689   9.944   3.998 -0.2127 -0.1388 -0.0139
    1CHOL    C129431  21.750   9.860   4.365 -0.1451 -0.1479 -0.0278
    1CHOL    C229432  21.735  10.024   4.764  0.2366  0.1193  0.0529
    1CHOL   ROH29433  12.567  14.527   6.058  0.0635 -0.1049 -0.0459
    1CHOL    R129434  12.756  14.492   5.851  0.0539 -0.0334 -0.0679
    1CHOL    R229435  12.812  14.245   5.740  0.1325 -0.0158 -0.0795
    1CHOL    R329436  12.752  14.372   5.507  0.0560 -0.0304 -0.0674
    1CHOL    R429437  12.880  14.122   5.424 -0.0171 -0.0469 -0.1001
    1CHOL    R529438  12.938  14.323   5.363 -0.0151 -0.0658 -0.1409
    1CHOL    C129439  12.864  14.169   5.022 -0.1759 -0.0786 -0.1007
    1CHOL    C229440  12.732  14.314   4.692 -0.1370  0.2463 -0.4204
    1CHOL   ROH29441  27.675   6.686   3.310 -0.0967 -0.0162  0.1969
    1CHOL    R129442  27.564   6.864   3.500 -0.1118  0.0314  0.1443
    1CHOL    R229443  27.435   6.777   3.728 -0.1946  0.0861  0.1232
    1CHOL    R329444  27.613   6.941   3.852 -0.1910  0.0629  0.1475
    1CHOL    R429445  27.435   6.847   4.066 -0.1798  0.0334  0.1339
    1CHOL    R529446  27.483   7.055   4.018 -0.1801  0.0367  0.1694
    1CHOL    C129447  27.602   7.042   4.380 -0.1677 -0.0192  0.1629
    1CHOL    C229448  27.475   6.841   4.700  0.1124  0.0759 -0.0914
    1CHOL   ROH29449  23.083  10.952   2.941  0.2873 -0.1881 -0.0411
    1CHOL    R129450  23.071  10.918   3.221  0.1922 -0.1636 -0.0425
    1CHOL    R229451  23.296  10.921   3.382  0.1280 -0.0617  0.0423
    1CHOL    R329452  23.159  11.114   3.515  0.0043 -0.1004 -0.0263
    1CHOL    R429453  23.334  10.994   3.717  0.1920  0.1762 -0.0139
    1CHOL    R529454  23.118  11.019   3.731  0.1705 -0.0087  0.0496
    1CHOL    C129455  23.226  11.217   4.039  0.1128  0.2785 -0.1110
    1CHOL    C229456  22.906  11.389   4.159  0.0339  0.1595  0.0131
    1CHOL   ROH29457  20.385  16.612   5.567  0.3288  0.0146 -0.1127
    1CHOL    R129458  20.296  16.530   5.312  0.2122 -0.0061 -0.0664
    1CHOL    R229459  20.347  16.676   5.082  0.0643  0.0038 -0.0976
    1CHOL    R329460  20.449  16.439   4.994  0.0676  0.0232 -0.1446
    1CHOL    R429461  20.384  16.588   4.750 -0.1224 -0.0148 -0.1138
    1CHOL    R529462  20.318  16.386   4.801 -0.0393 -0.0256 -0.0574
    1CHOL    C129463  20.500  16.315   4.474 -0.2277 -0.0073 -0.1674
    1CHOL    C229464  20.448  15.984   4.190  0.4271  0.1166  0.2827
    1CHOL   ROH29465   4.082  19.421   3.312  0.0244 -0.1884  0.0467
    1CHOL    R129466   3.939  19.437   3.556  0.0313  0.0330  0.0376
    1CHOL    R229467   3.964  19.249   3.756 -0.1571  0.0764  0.1005
    1CHOL    R329468   4.020  19.466   3.909  0.0467  0.0747  0.0317
    1CHOL    R429469   3.962  19.252   4.101 -0.5550  0.2741  0.1023
    1CHOL    R529470   3.868  19.449   4.094 -0.2081  0.4445 -0.1273
    1CHOL    C129471   4.014  19.457   4.447 -0.5955  0.3877  0.0388
    1CHOL    C229472   3.855  19.228   4.648  0.2134 -0.1415 -0.2487
    1CHOL   ROH29473  13.597  28.812   3.601 -0.1218  0.1033 -0.0051
    1CHOL    R129474  13.745  28.794   3.842 -0.0480  0.0177 -0.0566
    1CHOL    R229475  13.751  28.565   3.996 -0.0405 -0.0200 -0.1156
    1CHOL    R329476  14.020  28.593   3.969 -0.0429 -0.0633 -0.1925
    1CHOL    R429477  13.987  28.391   4.179 -0.0198  0.1298  0.0028
    1CHOL    R529478  14.104  28.574   4.192 -0.0031  0.1367 -0.1878
    1CHOL    C129479  14.377  28.316   4.260 -0.0099  0.1765 -0.0005
    1CHOL    C229480  14.445  28.070   4.566 -0.1119 -0.3062  0.2258
    1CHOL   ROH29481  17.838  14.011   3.024  0.0032  0.0998 -0.1179
    1CHOL    R129482  17.987  14.068   3.258 -0.0181  0.0114 -0.0813
    1CHOL    R229483  17.958  14.304   3.399 -0.0669 -0.0594  0.0359
    1CHOL    R329484  17.914  14.136   3.608 -0.0505 -0.1736 -0.0528
    1CHOL    R429485  18.027  14.378   3.730 -0.0359 -0.2522  0.0730
    1CHOL    R529486  18.100  14.174   3.755 -0.0402 -0.2639 -0.0475
    1CHOL    C129487  18.026  14.262   4.118 -0.0025 -0.4717  0.0113
    1CHOL    C229488  18.130  14.156   4.391 -0.1553 -0.1432  0.0487
    1CHOL   ROH29489   7.280  27.881   3.482  0.1982 -0.0127 -0.1166
    1CHOL    R129490   7.458  27.669   3.539  0.1356  0.0051  0.1547
    1CHOL    R229491   7.430  27.507   3.762 -0.2798 -0.0918  0.0373
    1CHOL    R329492   7.435  27.308   3.577  0.1386 -0.0177 -0.0433
    1CHOL    R429493   7.510  27.177   3.827 -0.0913 -0.0521  0.0152
    1CHOL    R529494   7.620  27.171   3.640  0.1733  0.1142  0.1566
    1CHOL    C129495   7.561  26.798   3.692  0.4113  0.0406 -0.0734
    1CHOL    C229496   7.854  26.650   3.476  0.0365  0.0327  0.1216
    1CHOL   ROH29497  11.924  10.817   6.225 -0.1117  0.0701  0.1344
    1CHOL    R129498  11.703  10.752   6.062 -0.0815 -0.0155  0.1276
    1CHOL    R229499  11.618  10.914   5.854 -0.0988 -0.0801  0.0863
    1CHOL    R329500  11.645  10.686   5.708 -0.0353 -0.1049  0.1357
    1CHOL    R429501  11.473  10.858   5.545 -0.0255 -0.1560  0.0651
    1CHOL    R529502  11.430  10.654   5.607 -0.0113 -0.1522  0.0957
    1CHOL    C129503  11.415  10.612   5.228  0.0767 -0.2236  0.0992
    1CHOL    C229504  11.486  10.441   4.906 -0.1163  0.0228 -0.1676
    1CHOL   ROH29505  13.416   9.733   5.381 -0.1080  0.1371  0.0681
    1CHOL    R129506  13.525   9.472   5.388 -0.1509  0.1170 -0.0317
    1CHOL    R229507  13.553   9.329   5.623 -0.0440  0.0823 -0.0731
    1CHOL    R329508  13.412   9.140   5.488 -0.1510  0.1192 -0.0165
    1CHOL    R429509  13.553   8.991   5.696  0.1173  0.0468 -0.2267
    1CHOL    R529510  13.556   8.950   5.482 -0.1029  0.1519 -0.2614
    1CHOL    C129511  13.420   8.617   5.611  0.1108  0.0609 -0.2630
    1CHOL    C229512  13.544   8.317   5.815 -0.3313  0.4161 -0.2282
    1CHOL   ROH29513  11.624   4.354   6.451 -0.3626  0.2319 -0.3795
    1CHOL    R129514  11.712   4.287   6.191 -0.5142  0.2459 -0.4344
    1CHOL    R229515  11.857   4.058   6.137  0.1296  0.6233 -0.3908
    1CHOL    R329516  11.659   4.013   5.956 -0.0099 -0.1729 -0.0847
    1CHOL    R429517  11.904   3.928   5.821  0.1105  0.5097 -0.3483
    1CHOL    R529518  11.757   4.070   5.746 -0.4786 -0.0123 -0.2762
    1CHOL    C129519  11.746   3.810   5.466 -0.0316 -0.3039 -0.0360
    1CHOL    C229520  11.646   3.843   5.124  0.1989  0.3622  0.1065
    1CHOL   ROH29521  14.637  10.762   6.453 -0.1467 -0.1657  0.1352
    1CHOL    R129522  14.779  10.658   6.232  0.0787  0.0284  0.1841
    1CHOL    R229523  14.654  10.524   6.024  0.3360 -0.1651  0.1494
    1CHOL    R329524  14.782  10.708   5.871  0.1191  0.0174  0.1829
    1CHOL    R429525  14.655  10.527   5.679  0.2666 -0.0535  0.1501
    1CHOL    R529526  14.865  10.583   5.685  0.2128  0.1611  0.1265
    1CHOL    C129527  14.775  10.703   5.334  0.0226  0.1828  0.1819
    1CHOL    C229528  14.739  10.605   4.971 -0.1442  0.2704  0.1417
    1CHOL   ROH29529   5.953   1.380   3.061 -0.1960 -0.0039 -0.0740
    1CHOL    R129530   5.802   1.433   3.295 -0.2228 -0.0017 -0.0910
    1CHOL    R229531   5.916   1.534   3.525 -0.2114 -0.1785 -0.0129
    1CHOL    R329532   5.723   1.723   3.499 -0.0736 -0.0332  0.0113
    1CHOL    R429533   5.810   1.743   3.779  0.0407 -0.0217 -0.0328
    1CHOL    R529534   5.605   1.717   3.708 -0.0035  0.1198  0.0534
    1CHOL    C129535   5.566   2.042   3.903  0.3170  0.2060 -0.0216
    1CHOL    C229536   5.758   2.341   4.176 -0.0248  0.0118 -0.1369
    1CHOL   ROH29537  24.277  14.940   6.258  0.0274 -0.1322  0.0161
    1CHOL    R129538  24.356  14.815   6.017  0.0584 -0.1472  0.0338
    1CHOL    R229539  24.177  14.686   5.851  0.0578 -0.0415 -0.0488
    1CHOL    R329540  24.282  14.851   5.663  0.2136 -0.0743  0.0076
    1CHOL    R429541  24.215  14.605   5.518 -0.3014  0.1335 -0.1368
    1CHOL    R529542  24.409  14.706   5.521 -0.1216 -0.1915 -0.1846
    1CHOL    C129543  24.335  14.713   5.146 -0.3644  0.2047 -0.1351
    1CHOL    C229544  24.505  14.813   4.971 -0.0331 -0.1964  0.2784
    1CHOL   ROH29545  14.574   3.084   4.490  0.2075 -0.0078  0.1914
    1CHOL    R129546  14.546   3.092   4.772  0.0792  0.0904  0.1773
    1CHOL    R229547  14.352   3.242   4.898 -0.0135  0.0931  0.0353
    1CHOL    R329548  14.291   3.005   5.015 -0.0104  0.1215  0.0946
    1CHOL    R429549  14.178   3.208   5.195 -0.0924  0.1610 -0.0029
    1CHOL    R529550  14.314   3.047   5.250 -0.0838  0.2000  0.0877
    1CHOL    C129551  14.018   2.965   5.477 -0.1352  0.2272  0.0305
    1CHOL    C229552  13.748   2.830   5.733  0.1200 -0.1034  0.0289
    1CHOL   ROH29553  18.430  18.694   2.450  0.2101 -0.2045  0.0736
    1CHOL    R129554  18.314  18.796   2.687  0.1852  0.1993 -0.1023
    1CHOL    R229555  18.291  18.646   2.919 -0.5992  0.2871 -0.0814
    1CHOL    R329556  18.423  18.856   3.029 -0.0800 -0.0820  0.0319
    1CHOL    R429557  18.272  18.741   3.250 -0.4187  0.2413 -0.0581
    1CHOL    R529558  18.269  18.949   3.186  0.1302  0.2696  0.0230
    1CHOL    C129559  18.385  18.994   3.547  0.1738 -0.1322  0.0619
    1CHOL    C229560  18.346  19.292   3.765 -0.0162 -0.0066 -0.2877
    1CHOL   ROH29561  18.293  12.250   6.683  0.1974 -0.0005 -0.1049
    1CHOL    R129562  18.459  12.234   6.454  0.1479 -0.0659 -0.1378
    1CHOL    R229563  18.476  12.006   6.298  0.0660 -0.0918 -0.1166
    1CHOL    R329564  18.414  12.179   6.098  0.0609 -0.1004 -0.1205
    1CHOL    R429565  18.466  11.925   5.962  0.0316 -0.1057 -0.1113
    1CHOL    R529566  18.559  12.117   5.918  0.0384 -0.1173 -0.1292
    1CHOL    C129567  18.402  12.040   5.579  0.0067 -0.1218 -0.1120
    1CHOL    C229568  18.404  12.046   5.215 -0.1557 -0.0713  0.1457
    1CHOL   ROH29569  24.959   8.223   3.713  0.1184 -0.1227 -0.0398
    1CHOL    R129570  25.123   8.218   3.943  0.0429 -0.1252  0.0130
    1CHOL    R229571  25.052   8.342   4.179 -0.0192 -0.1024 -0.0235
    1CHOL    R329572  25.098   8.096   4.285 -0.0786 -0.0984  0.0152
    1CHOL    R429573  25.221   8.284   4.475  0.0568 -0.0979 -0.0641
    1CHOL    R529574  25.317   8.112   4.380 -0.0375 -0.1584 -0.0607
    1CHOL    C129575  25.361   8.018   4.747  0.0455 -0.0916 -0.0514
    1CHOL    C229576  25.642   7.822   5.005  0.1758 -0.1797  0.2033
    1CHOL   ROH29577  13.332   6.856   4.647 -0.1897 -0.0228 -0.1121
    1CHOL    R129578  13.481   6.911   4.881 -0.1920 -0.0479 -0.1044
    1CHOL    R229579  13.451   7.144   5.025 -0.2312 -0.0884 -0.0497
    1CHOL    R329580  13.409   6.973   5.232 -0.1899 -0.1418 -0.0859
    1CHOL    R429581  13.475   7.230   5.359  0.0854 -0.2232 -0.0352
    1CHOL    R529582  13.572   7.037   5.396 -0.0142 -0.3102 -0.1850
    1CHOL    C129583  13.449   7.119   5.748  0.3084 -0.3517 -0.0609
    1CHOL    C229584  13.295   7.268   6.124  0.2528 -0.1014  0.1653
    1CHOL   ROH29585  10.395  19.089   5.524  0.1314 -0.0048 -0.1299
    1CHOL    R129586  10.190  19.089   5.328  0.0196 -0.0539 -0.0158
    1CHOL    R229587  10.242  19.056   5.058 -0.1070  0.1163 -0.0664
    1CHOL    R329588  10.061  18.854   5.081  0.0513 -0.0265 -0.0572
    1CHOL    R429589  10.024  18.958   4.809 -0.4677  0.3560  0.1476
    1CHOL    R529590   9.869  18.933   4.961 -0.2027  0.0400  0.3760
    1CHOL    C129591   9.726  18.712   4.685 -0.5289  0.3618  0.2808
    1CHOL    C229592   9.671  18.503   4.282  0.1216  0.3982 -0.0963
    1CHOL   ROH29593  20.937  10.409   3.545 -0.0940  0.0994  0.0945
    1CHOL    R129594  21.026  10.552   3.773  0.0511  0.0091  0.0948
    1CHOL    R229595  20.866  10.594   3.994  0.0924  0.1717  0.0928
    1CHOL    R329596  21.075  10.481   4.127 -0.0211 -0.0413  0.0951
    1CHOL    R429597  20.918  10.617   4.335  0.1278  0.1433  0.0898
    1CHOL    R529598  21.132  10.642   4.295  0.1558 -0.0862  0.0809
    1CHOL    C129599  21.145  10.524   4.658  0.0420 -0.0732  0.0903
    1CHOL    C229600  21.270  10.845   4.825 -0.1902  0.0669 -0.1216
    1CHOL   ROH29601  17.629  11.046   7.013  0.1221 -0.0061 -0.0139
    1CHOL    R129602  17.679  10.938   6.756  0.1948  0.0263 -0.0131
    1CHOL    R229603  17.476  10.867   6.582  0.2414 -0.1395 -0.0002
    1CHOL    R329604  17.608  11.033   6.412  0.1027 -0.0384 -0.0123
    1CHOL    R429605  17.499  10.822   6.240  0.3420 -0.1846  0.0116
    1CHOL    R529606  17.707  10.886   6.250  0.2778  0.0278  0.0324
    1CHOL    C129607  17.636  10.951   5.881  0.2700 -0.1161  0.0071
    1CHOL    C229608  17.680  10.946   5.476  0.1141  0.1849 -0.2593
    1CHOL   ROH29609  23.308  13.565   2.933  0.1453  0.2985  0.0726
    1CHOL    R129610  23.469  13.600   3.163  0.1454  0.0291  0.1163
    1CHOL    R229611  23.427  13.804   3.344  0.4034  0.0695  0.1310
    1CHOL    R329612  23.419  13.599   3.523  0.0589  0.0541  0.1053
    1CHOL    R429613  23.373  13.840   3.684  0.3817  0.1151  0.1230
    1CHOL    R529614  23.524  13.687   3.719  0.1521 -0.1210  0.1390
    1CHOL    C129615  23.334  13.669   4.049  0.0456  0.1272  0.0943
    1CHOL    C229616  23.523  13.582   4.407  0.1808  0.0329  0.2415
    1CHOL   ROH29617  20.455  10.382   6.570 -0.2244  0.1043  0.2060
    1CHOL    R129618  20.447  10.418   6.289 -0.1517  0.0921  0.2020
    1CHOL    R229619  20.336  10.231   6.118 -0.0050  0.0311  0.1705
    1CHOL    R329620  20.189  10.443   6.033 -0.0831 -0.0431  0.1193
    1CHOL    R429621  20.172  10.248   5.815  0.0223 -0.0809  0.1487
    1CHOL    R529622  20.234  10.456   5.798 -0.0627 -0.0593  0.1238
    1CHOL    C129623  19.938  10.458   5.558 -0.0351 -0.2158  0.0879
    1CHOL    C229624  19.914  10.249   5.405  0.1719 -0.1501 -0.1497
    1CHOL   ROH29625  22.444  15.837   6.001  0.2556  0.0857 -0.0121
    1CHOL    R129626  22.581  15.831   5.754  0.1930 -0.0565 -0.0433
    1CHOL    R229627  22.546  15.629   5.569 -0.1943  0.0691 -0.1087
    1CHOL    R329628  22.490  15.835   5.401  0.1212  0.2291 -0.0252
    1CHOL    R429629  22.606  15.628   5.229 -0.4066  0.0080 -0.1482
    1CHOL    R529630  22.672  15.835   5.245  0.0358 -0.1176 -0.1398
    1CHOL    C129631  22.589  15.822   4.873 -0.2342  0.1225 -0.0927
    1CHOL    C229632  22.868  15.749   4.677  0.2175 -0.0253  0.2130
    1CHOL   ROH29633   7.154  27.717   5.799 -0.0556 -0.0054  0.1152
    1CHOL    R129634   7.335  27.883   5.658 -0.0393  0.0010  0.1416
    1CHOL    R229635   7.539  27.781   5.501 -0.0282  0.0060  0.1442
    1CHOL    R329636   7.426  27.939   5.311 -0.0154  0.0246  0.1533
    1CHOL    R429637   7.697  27.887   5.212 -0.0801 -0.1147  0.0716
    1CHOL    R529638   7.604  28.082   5.238  0.0219 -0.0712  0.0668
    1CHOL    C129639   7.683  28.096   4.866 -0.0984 -0.1679  0.0379
    1CHOL    C229640   7.693  28.370   4.632 -0.0011  0.2719  0.2671
    1CHOL   ROH29641  13.583  18.303   5.362  0.0725 -0.0883  0.0387
    1CHOL    R129642  13.377  18.112   5.322 -0.0455  0.0530 -0.0407
    1CHOL    R229643  13.287  18.042   5.070  0.0388  0.0766 -0.0814
    1CHOL    R329644  13.344  17.790   5.156 -0.1861  0.0496 -0.0048
    1CHOL    R429645  13.207  17.752   4.899  0.1064  0.1084 -0.1672
    1CHOL    R529646  13.154  17.660   5.090 -0.1683  0.1385 -0.2295
    1CHOL    C129647  13.214  17.347   4.880 -0.0654  0.1017 -0.1452
    1CHOL    C229648  13.350  17.263   4.510  0.3115  0.0524  0.0224
    1CHOL   ROH29649   6.489   9.616   3.381 -0.0353 -0.0993 -0.0834
    1CHOL    R129650   6.568   9.635   3.653  0.3451 -0.0842 -0.1911
    1CHOL    R229651   6.442   9.494   3.854  0.1630  0.4539  0.0720
    1CHOL    R329652   6.694   9.408   3.908 -0.0019 -0.2386 -0.1449
    1CHOL    R429653   6.545   9.363   4.156  0.1483  0.6929  0.1849
    1CHOL    R529654   6.731   9.473   4.135  0.5051  0.0967 -0.2959
    1CHOL    C129655   6.842   9.205   4.383 -0.0151  0.1821  0.0470
    1CHOL    C229656   6.900   9.234   4.816  0.2056  0.1756  0.0103
    1CHOL   ROH29657  23.932  13.558   6.553 -0.0025  0.1334 -0.1357
    1CHOL    R129658  23.896  13.636   6.283  0.0371 -0.0150 -0.1853
    1CHOL    R229659  24.108  13.669   6.109  0.0692 -0.0536 -0.1587
    1CHOL    R329660  23.967  13.494   5.956  0.1446 -0.1694 -0.0954
    1CHOL    R429661  24.158  13.619   5.771  0.0800 -0.1497 -0.1423
    1CHOL    R529662  23.941  13.606   5.746  0.0875 -0.2561 -0.1329
    1CHOL    C129663  24.055  13.425   5.430  0.1574 -0.3144 -0.0735
    1CHOL    C229664  24.122  13.348   5.073 -0.0903  0.0876 -0.1382
    1CHOL   ROH29665   4.563   7.652   3.988  0.1114 -0.0814  0.0853
    1CHOL    R129666   4.509   7.735   4.253  0.1291  0.0224  0.0577
    1CHOL    R229667   4.709   7.780   4.438  0.1445  0.1235  0.0209
    1CHOL    R329668   4.588   8.022   4.462  0.1178  0.1188 -0.0706
    1CHOL    R429669   4.732   7.985   4.715 -0.1377  0.0914  0.0702
    1CHOL    R529670   4.520   8.032   4.692 -0.1142  0.0917 -0.1373
    1CHOL    C129671   4.631   8.332   4.899 -0.3271  0.0683  0.0131
    1CHOL    C229672   4.883   8.638   5.052  0.2009 -0.1600  0.1570
    1CHOL   ROH29673  21.163  11.912   3.360 -0.1193 -0.0401 -0.0878
    1CHOL    R129674  21.031  11.893   3.610  0.0055 -0.0329 -0.0206
    1CHOL    R229675  21.169  11.875   3.849  0.1268  0.0619 -0.0801
    1CHOL    R329676  21.016  12.090   3.915  0.0866  0.0252 -0.0542
    1CHOL    R429677  21.100  11.976   4.172  0.0481 -0.0274 -0.0684
    1CHOL    R529678  20.896  12.020   4.110  0.0567 -0.0378 -0.0968
    1CHOL    C129679  20.917  12.237   4.423 -0.0355 -0.1139 -0.0373
    1CHOL    C229680  20.840  12.454   4.788  0.1685 -0.1762  0.1049
    1CHOL   ROH29681  25.763   8.369   6.931  0.0750 -0.3290 -0.1149
    1CHOL    R129682  25.600   8.346   6.700  0.0175 -0.2026 -0.0879
    1CHOL    R229683  25.413   8.537   6.632  0.1208 -0.0771 -0.0324
    1CHOL    R329684  25.546   8.537   6.395  0.0791 -0.1335 -0.0556
    1CHOL    R429685  25.263   8.555   6.321  0.0669 -0.1679 -0.0114
    1CHOL    R529686  25.407   8.408   6.249  0.0607 -0.1790  0.0028
    1CHOL    C129687  25.301   8.565   5.918 -0.0038 -0.2736 -0.0209
    1CHOL    C229688  25.461   8.484   5.557 -0.0938 -0.0205 -0.0956
    1CHOL   ROH29689  29.728   4.281   5.111 -0.0062 -0.0347  0.2975
    1CHOL    R129690  29.619   4.515   4.996  0.0424 -0.0838  0.1503
    1CHOL    R229691  29.390   4.512   4.842  0.0611 -0.1384  0.1244
    1CHOL    R329692  29.306   4.700   5.019  0.0667 -0.0235  0.0072
    1CHOL    R429693  29.125   4.728   4.790  0.1638 -0.0568 -0.0737
    1CHOL    R529694  29.243   4.886   4.883  0.1905 -0.0602 -0.1023
    1CHOL    C129695  28.893   5.031   4.927  0.2288  0.0987 -0.2990
    1CHOL    C229696  28.755   5.069   4.596 -0.1844  0.1378 -0.1732
    1CHOL   ROH29697  11.717   7.168   4.723  0.0108 -0.0119 -0.0658
    1CHOL    R129698  11.694   7.297   4.975 -0.0936 -0.1364 -0.0108
    1CHOL    R229699  11.600   7.168   5.200  0.1728 -0.3625 -0.0249
    1CHOL    R329700  11.834   7.253   5.308  0.0884 -0.0544 -0.0752
    1CHOL    R429701  11.661   7.199   5.538  0.2182 -0.3217 -0.0365
    1CHOL    R529702  11.768   7.385   5.497 -0.0442 -0.1665 -0.0416
    1CHOL    C129703  11.917   7.298   5.837  0.1656 -0.0086 -0.0904
    1CHOL    C229704  12.154   7.291   6.221 -0.0524 -0.1469 -0.2984
    1CHOL   ROH29705   0.197  29.224   2.756 -0.0556 -0.2822  0.0534
    1CHOL    R129706   0.200  29.235   3.039 -0.0825 -0.0340  0.0468
    1CHOL    R229707   0.183  29.009   3.197 -0.2079  0.1075  0.2482
    1CHOL    R329708   0.411  29.108   3.307 -0.1717  0.0987  0.1799
    1CHOL    R429709   0.295  28.938   3.516 -0.0273 -0.0155  0.1584
    1CHOL    R529710   0.354  29.147   3.536 -0.0582 -0.0179  0.2255
    1CHOL    C129711   0.575  28.990   3.805  0.1117 -0.0955  0.0420
    1CHOL    C229712   0.760  28.710   4.034  0.3516  0.1296 -0.0749
    1CHOL   ROH29713  11.928   9.791   5.096  0.2643 -0.1958  0.1440
    1CHOL    R129714  11.986  10.068   5.075  0.2320 -0.1858  0.1813
    1CHOL    R229715  12.203  10.184   5.200  0.3100 -0.2060  0.0677
    1CHOL    R329716  12.260  10.272   4.949  0.1347 -0.1332  0.0524
    1CHOL    R429717  12.438  10.425   5.124  0.3825 -0.3095 -0.0372
    1CHOL    R529718  12.300  10.506   4.976  0.2936 -0.1666  0.1193
    1CHOL    C129719  12.629  10.648   4.844  0.2601 -0.3013 -0.1126
    1CHOL    C229720  12.875  10.863   4.902  0.0061  0.1753 -0.1323
    1CHOL   ROH29721  22.829  14.070   6.570 -0.0661  0.0528 -0.0135
    1CHOL    R129722  22.952  14.135   6.324  0.1365  0.0262  0.0787
    1CHOL    R229723  23.145  13.976   6.207 -0.0225 -0.1750  0.0808
    1CHOL    R329724  22.978  13.984   5.993  0.0809  0.1722  0.0076
    1CHOL    R429725  23.201  13.814   5.907 -0.2576 -0.3424  0.1241
    1CHOL    R529726  23.125  13.990   5.804  0.1784 -0.1787  0.0675
    1CHOL    C129727  23.076  13.728   5.531 -0.2975 -0.1138  0.0807
    1CHOL    C229728  23.291  13.746   5.230  0.0530 -0.2575 -0.0632
    1CHOL   ROH29729  24.211   9.879   6.680 -0.2367  0.1326  0.0158
    1CHOL    R129730  24.295   9.963   6.424 -0.2289  0.0787  0.0020
    1CHOL    R229731  24.432   9.798   6.250 -0.1555  0.0700  0.0772
    1CHOL    R329732  24.232   9.866   6.079 -0.1497 -0.0461  0.0200
    1CHOL    R429733  24.462   9.813   5.906 -0.1312 -0.1654  0.0661
    1CHOL    R529734  24.340   9.994   5.908 -0.1357 -0.1588 -0.0621
    1CHOL    C129735  24.291   9.886   5.545 -0.1117 -0.4116  0.0060
    1CHOL    C229736  24.432   9.943   5.167 -0.0750  0.2240 -0.3102
    1CHOL   ROH29737  20.764  15.727   6.226 -0.0907  0.1763  0.0830
    1CHOL    R129738  20.628  15.688   5.981 -0.0368  0.0617  0.0706
    1CHOL    R229739  20.759  15.677   5.739  0.0014  0.1039  0.0902
    1CHOL    R329740  20.628  15.440   5.715  0.1426  0.0228  0.1051
    1CHOL    R429741  20.690  15.519   5.439 -0.0480  0.1263  0.0895
    1CHOL    R529742  20.493  15.466   5.518  0.0247 -0.0192  0.1785
    1CHOL    C129743  20.526  15.205   5.243  0.0555  0.0632  0.1031
    1CHOL    C229744  20.308  14.922   5.103  0.2045  0.0389 -0.1610
    1CHOL   ROH29745  12.419   7.871   4.277 -0.2561  0.0840  0.1331
    1CHOL    R129746  12.492   7.997   4.520 -0.2146  0.0792  0.1241
    1CHOL    R229747  12.440   7.884   4.767 -0.0463  0.0071  0.1299
    1CHOL    R329748  12.707   7.920   4.803 -0.0486  0.1404  0.0153
    1CHOL    R429749  12.593   7.939   5.072  0.0704 -0.0275  0.0777
    1CHOL    R529750  12.722   8.085   4.976 -0.0569  0.0811  0.0718
    1CHOL    C129751  12.932   8.005   5.284  0.1362  0.0774 -0.0604
    1CHOL    C229752  13.057   8.314   5.471  0.2526 -0.1063  0.1381
    1CHOL   ROH29753  25.930   9.665   6.541 -0.1704 -0.0428  0.0988
    1CHOL    R129754  25.992   9.599   6.273 -0.0298  0.0253  0.1126
    1CHOL    R229755  25.855   9.403   6.133  0.1296 -0.0348  0.0318
    1CHOL    R329756  25.819   9.603   5.953  0.0888 -0.0281  0.0481
    1CHOL    R429757  25.813   9.358   5.793 -0.4147 -0.0486  0.0930
    1CHOL    R529758  25.939   9.532   5.759 -0.2700 -0.1955 -0.1197
    1CHOL    C129759  25.754   9.520   5.426 -0.7699 -0.0505  0.1440
    1CHOL    C229760  25.691   9.291   5.202  0.0632  0.1118 -0.0646
    1CHOL   ROH29761  19.281  13.669   3.081 -0.1160 -0.1065  0.1154
    1CHOL    R129762  19.348  13.714   3.352 -0.0156 -0.0351  0.0781
    1CHOL    R229763  19.605  13.775   3.433  0.0136 -0.0293 -0.0333
    1CHOL    R329764  19.483  13.989   3.549  0.0724  0.0109 -0.0430
    1CHOL    R429765  19.705  13.922   3.729 -0.1067 -0.2269  0.1081
    1CHOL    R529766  19.494  13.943   3.784 -0.1418 -0.1006 -0.0482
    1CHOL    C129767  19.648  14.208   4.011 -0.1214 -0.3042  0.1814
    1CHOL    C229768  19.534  14.141   4.295 -0.1506  0.1114  0.0220
    1CHOL   ROH29769  27.052  12.755   3.316  0.2540  0.0203 -0.0483
    1CHOL    R129770  27.186  12.754   3.565  0.0467  0.1367  0.0669
    1CHOL    R229771  27.063  12.827   3.801 -0.2366 -0.0272 -0.0246
    1CHOL    R329772  27.149  12.583   3.884 -0.0384  0.0539  0.0130
    1CHOL    R429773  27.163  12.752   4.123  0.1017  0.1710 -0.0788
    1CHOL    R529774  27.325  12.632   4.040  0.0839  0.2130 -0.1712
    1CHOL    C129775  27.303  12.480   4.389  0.4848  0.3626 -0.0752
    1CHOL    C229776  27.529  12.482   4.709  0.1703  0.0996 -0.0266
    1CHOL   ROH29777   6.095  20.667   2.719  0.1542 -0.1425 -0.0613
    1CHOL    R129778   6.136  20.869   2.913 -0.1059 -0.0861 -0.0620
    1CHOL    R229779   6.023  20.859   3.164  0.0437 -0.3235 -0.0066
    1CHOL    R329780   6.280  20.890   3.247  0.0400  0.1362 -0.1348
    1CHOL    R429781   6.117  21.009   3.461 -0.1242 -0.5645  0.1732
    1CHOL    R529782   6.282  21.105   3.354 -0.3968 -0.0069  0.2013
    1CHOL    C129783   6.414  21.125   3.711 -0.2254 -0.2733  0.1576
    1CHOL    C229784   6.075  21.464   3.743 -0.1573 -0.0454  0.0570
    1CHOL   ROH29785   7.699  23.939   4.990 -0.0996 -0.0353 -0.0976
    1CHOL    R129786   7.794  23.976   4.726 -0.0256 -0.1525 -0.0900
    1CHOL    R229787   7.669  23.865   4.506 -0.1022 -0.0663 -0.1007
    1CHOL    R329788   7.666  24.121   4.417  0.1473 -0.0681 -0.1202
    1CHOL    R429789   7.562  23.963   4.192 -0.3439  0.0652  0.0208
    1CHOL    R529790   7.728  24.105   4.186 -0.1561 -0.1695 -0.1920
    1CHOL    C129791   7.497  24.262   3.927 -0.2505  0.1398  0.0732
    1CHOL    C229792   7.378  24.586   3.695  0.0254  0.2841 -0.0518
    1CHOL   ROH29793  25.854  14.809   3.180 -0.0241 -0.0543  0.0387
    1CHOL    R129794  25.879  14.982   3.403 -0.0204 -0.0746  0.0540
    1CHOL    R229795  25.673  15.025   3.581 -0.0402 -0.0369  0.0212
    1CHOL    R329796  25.859  14.952   3.765 -0.0892 -0.0931  0.0491
    1CHOL    R429797  25.615  14.995   3.921 -0.0794  0.0657  0.0239
    1CHOL    R529798  25.810  15.086   3.957 -0.0342 -0.0255  0.0172
    1CHOL    C129799  25.756  14.910   4.291 -0.1479  0.0726  0.0517
    1CHOL    C229800  25.950  14.838   4.530  0.1016 -0.1140  0.2122
    1CHOL   ROH29801  23.858  16.017   6.088 -0.0128 -0.0252 -0.0238
    1CHOL    R129802  24.045  15.997   5.877 -0.0668  0.0076 -0.0761
    1CHOL    R229803  24.037  15.793   5.690  0.0236 -0.0966  0.0267
    1CHOL    R329804  24.034  15.999   5.513 -0.1928 -0.1855 -0.0738
    1CHOL    R429805  24.106  15.765   5.352  0.2156 -0.1614  0.0705
    1CHOL    R529806  24.215  15.953   5.364 -0.0584  0.0023  0.0309
    1CHOL    C129807  24.142  15.942   4.989  0.1244 -0.2824  0.0016
    1CHOL    C229808  24.342  15.990   4.632 -0.2861 -0.1286  0.1985
    1CHOL   ROH29809  13.577  15.112   5.677  0.2270 -0.1159  0.0711
    1CHOL    R129810  13.560  14.996   5.419  0.2810 -0.2532  0.1269
    1CHOL    R229811  13.499  15.144   5.194 -0.2504 -0.4665  0.1115
    1CHOL    R329812  13.730  15.037   5.100 -0.0641  0.0322 -0.0266
    1CHOL    R429813  13.551  15.037   4.869 -0.3176 -0.6210  0.1516
    1CHOL    R529814  13.660  14.866   4.948  0.2011 -0.2865  0.1967
    1CHOL    C129815  13.799  14.875   4.592 -0.1820 -0.2427  0.0454
    1CHOL    C229816  13.817  14.879   4.354 -0.0860 -0.1135 -0.0418
    1CHOL   ROH29817  25.818  11.247   6.684 -0.0806  0.1600 -0.0891
    1CHOL    R129818  25.725  11.250   6.416 -0.0361  0.1493 -0.1051
    1CHOL    R229819  25.696  11.484   6.271  0.0015  0.1447 -0.1261
    1CHOL    R329820  25.855  11.355   6.093  0.0255  0.1223 -0.0880
    1CHOL    R429821  25.684  11.526   5.929 -0.0534 -0.0209 -0.1453
    1CHOL    R529822  25.713  11.312   5.906  0.0223 -0.0174 -0.0507
    1CHOL    C129823  25.827  11.430   5.561 -0.0629 -0.1383 -0.1209
    1CHOL    C229824  25.771  11.654   5.297 -0.1896  0.0355  0.0977
    1CHOL   ROH29825   3.568  28.221   3.543 -0.0214  0.2378  0.0055
    1CHOL    R129826   3.350  28.308   3.384 -0.0423  0.0687 -0.0614
    1CHOL    R229827   3.323  28.238   3.118  0.1171  0.0803 -0.0840
    1CHOL    R329828   3.078  28.152   3.199  0.1623 -0.1490 -0.1830
    1CHOL    R429829   3.036  28.249   2.926  0.0911  0.2378 -0.0371
    1CHOL    R529830   2.925  28.309   3.103  0.0825 -0.0731  0.0663
    1CHOL    C129831   2.639  28.175   2.890  0.1184  0.1140 -0.1027
    1CHOL    C229832   2.540  28.081   2.576  0.3480 -0.0176  0.2334
    1CHOL   ROH29833   4.521  14.482   4.515  0.1014 -0.1904 -0.0268
    1CHOL    R129834   4.338  14.275   4.454  0.0519 -0.1412 -0.0474
    1CHOL    R229835   4.387  14.010   4.518 -0.0048 -0.1621 -0.0854
    1CHOL    R329836   4.145  14.030   4.641  0.0052 -0.1227 -0.0723
    1CHOL    R429837   4.139  13.769   4.507  0.0041 -0.1776  0.0387
    1CHOL    R529838   3.992  13.928   4.487 -0.0042 -0.1939 -0.0147
    1CHOL    C129839   3.768  13.647   4.616  0.0187 -0.1496  0.1233
    1CHOL    C229840   3.556  13.447   4.305  0.0789 -0.0967  0.0218
    1CHOL   ROH29841  28.675  16.177   3.928 -0.0361 -0.0294  0.0733
    1CHOL    R129842  28.683  16.042   4.177 -0.0856 -0.0531  0.0589
    1CHOL    R229843  28.918  15.977   4.304 -0.1247 -0.0572  0.0935
    1CHOL    R329844  28.807  16.111   4.512 -0.1611 -0.0950  0.1018
    1CHOL    R429845  29.003  15.927   4.635  0.1367  0.1355  0.0606
    1CHOL    R529846  28.790  15.946   4.686  0.1217 -0.0765  0.1722
    1CHOL    C129847  28.948  16.025   5.024  0.2544  0.2120  0.0492
    1CHOL    C229848  29.220  15.732   5.142  0.5115  0.2310 -0.1199
    1CHOL   ROH29849  14.090  27.809   3.288 -0.1950  0.1434  0.0318
    1CHOL    R129850  13.975  27.749   3.539 -0.2420  0.0496 -0.0116
    1CHOL    R229851  13.866  27.502   3.598 -0.0956 -0.0283 -0.0661
    1CHOL    R329852  14.038  27.513   3.809 -0.1754  0.0740 -0.0052
    1CHOL    R429853  13.852  27.297   3.877  0.0150 -0.1403 -0.1414
    1CHOL    R529854  13.901  27.470   4.000 -0.1994 -0.1298 -0.0649
    1CHOL    C129855  14.004  27.189   4.236  0.0044 -0.1097 -0.1280
    1CHOL    C229856  14.149  26.812   4.405 -0.0498 -0.0666 -0.0339
    1CHOL   ROH29857  29.154  12.631   3.130 -0.0550  0.0040 -0.1510
    1CHOL    R129858  29.027  12.648   3.383 -0.1713  0.1045 -0.2154
    1CHOL    R229859  29.168  12.679   3.618 -0.2518 -0.1694 -0.1278
    1CHOL    R329860  29.004  12.893   3.651  0.0306  0.0587 -0.1541
    1CHOL    R429861  29.172  12.892   3.891 -0.3114 -0.4529  0.0999
    1CHOL    R529862  28.954  12.895   3.885 -0.3076 -0.1101 -0.2180
    1CHOL    C129863  29.020  13.216   4.080 -0.0811 -0.4038  0.2077
    1CHOL    C229864  29.104  13.607   4.255  0.1358  0.3569 -0.0709
    1CHOL   ROH29865  21.851   3.295   4.364 -0.0316 -0.2792  0.1145
    1CHOL    R129866  21.879   3.313   4.645  0.0185 -0.1961  0.1042
    1CHOL    R229867  21.875   3.091   4.809  0.0614 -0.1483  0.1685
    1CHOL    R329868  22.112   3.191   4.896  0.0716 -0.1088  0.0979
    1CHOL    R429869  22.075   2.942   5.048  0.1518 -0.1074  0.1195
    1CHOL    R529870  22.115   3.140   5.131  0.1452 -0.0978  0.0998
    1CHOL    C129871  22.415   2.949   5.269  0.2139 -0.0465  0.0247
    1CHOL    C229872  22.160   2.800   5.559  0.0550 -0.1262  0.1343
    1CHOL   ROH29873  20.266   2.309   4.394 -0.0759  0.2499 -0.0372
    1CHOL    R129874  20.409   2.272   4.636 -0.0842  0.0044 -0.0678
    1CHOL    R229875  20.415   2.463   4.836  0.1504 -0.0740  0.0006
    1CHOL    R329876  20.328   2.257   4.991 -0.0557 -0.0378 -0.0626
    1CHOL    R429877  20.300   2.495   5.160 -0.0081 -0.0324 -0.0585
    1CHOL    R529878  20.406   2.312   5.211 -0.1419 -0.1011 -0.0146
    1CHOL    C129879  20.151   2.321   5.494 -0.2939  0.0257 -0.1523
    1CHOL    C229880  19.937   2.216   5.736 -0.0315 -0.2267  0.1815
    1CHOL   ROH29881  21.424  23.081   5.419 -0.2195 -0.1186 -0.2206
    1CHOL    R129882  21.551  22.997   5.180  0.1728  0.0436 -0.0787
    1CHOL    R229883  21.820  22.939   5.167  0.1646 -0.1385  0.3728
    1CHOL    R329884  21.731  22.703   5.066  0.1710  0.0301 -0.0457
    1CHOL    R429885  22.023  22.672   5.082  0.1303 -0.1849  0.4373
    1CHOL    R529886  21.898  22.640   4.906  0.4130  0.0943  0.1753
    1CHOL    C129887  22.057  22.295   4.938  0.1163 -0.0539  0.0819
    1CHOL    C229888  22.252  21.924   4.985 -0.0795 -0.4837  0.2814
    1CHOL   ROH29889  24.770  10.764   6.810  0.0426 -0.0020 -0.0510
    1CHOL    R129890  24.810  10.857   6.546 -0.2312  0.0213 -0.0863
    1CHOL    R229891  24.984  10.735   6.370  0.0127  0.3666 -0.0855
    1CHOL    R329892  24.765  10.726   6.209 -0.0125 -0.1790 -0.0423
    1CHOL    R429893  24.993  10.730   6.024 -0.0247  0.6291 -0.0928
    1CHOL    R529894  24.822  10.866   6.023 -0.4521  0.1373  0.0377
    1CHOL    C129895  24.792  10.719   5.672 -0.0701  0.2698 -0.0566
    1CHOL    C229896  24.912  10.921   5.408  0.4141  0.1333 -0.2482
    1CHOL   ROH29897  16.358  10.580   6.743  0.3229  0.1256 -0.0358
    1CHOL    R129898  16.345  10.426   6.505  0.2576  0.0276  0.0293
    1CHOL    R229899  16.141  10.455   6.320  0.1642 -0.0986  0.1034
    1CHOL    R329900  16.348  10.492   6.147  0.0816 -0.1091  0.0033
    1CHOL    R429901  16.116  10.444   5.976  0.0324 -0.2176  0.1167
    1CHOL    R529902  16.306  10.338   5.970  0.0485 -0.1728  0.0721
    1CHOL    C129903  16.294  10.473   5.613 -0.1217 -0.2967  0.0304
    1CHOL    C229904  16.390  10.549   5.230 -0.2924  0.0028  0.0340
    1CHOL   ROH29905   6.979  15.781   3.020 -0.0465  0.1310 -0.1006
    1CHOL    R129906   7.058  15.708   3.282  0.0922 -0.0285 -0.1862
    1CHOL    R229907   6.906  15.766   3.505  0.3349  0.0665 -0.0461
    1CHOL    R329908   6.926  15.499   3.549  0.0920  0.0296 -0.1394
    1CHOL    R429909   6.823  15.608   3.801  0.3355  0.0632 -0.0468
    1CHOL    R529910   6.999  15.481   3.777  0.2002 -0.1085 -0.1809
    1CHOL    C129911   6.793  15.265   4.015  0.1078  0.0268 -0.1349
    1CHOL    C229912   6.807  15.307   4.362  0.2420  0.4166  0.0271
    1CHOL   ROH29913  19.924  22.664   5.227  0.0746  0.3356 -0.0588
    1CHOL    R129914  19.871  22.581   4.962  0.0143  0.2480 -0.0197
    1CHOL    R229915  19.688  22.709   4.799  0.0246  0.2329 -0.0418
    1CHOL    R329916  19.900  22.724   4.629  0.0034  0.1133 -0.0798
    1CHOL    R429917  19.671  22.815   4.471  0.0277  0.2821 -0.0258
    1CHOL    R529918  19.811  22.657   4.417 -0.0840  0.1944 -0.0706
    1CHOL    C129919  19.859  22.892   4.120  0.0094  0.1984 -0.0522
    1CHOL    C229920  19.896  22.660   3.728 -0.4035  0.0924 -0.1899
    1CHOL   ROH29921   8.460   9.621   6.041 -0.0289  0.1381 -0.0958
    1CHOL    R129922   8.289   9.513   5.842  0.2567 -0.0017 -0.2733
    1CHOL    R229923   8.066   9.647   5.749 -0.2163 -0.4925  0.0738
    1CHOL    R329924   8.182   9.606   5.507 -0.1143  0.3819 -0.0572
    1CHOL    R429925   7.894   9.599   5.453 -0.1328 -0.5870  0.0408
    1CHOL    R529926   8.040   9.447   5.399  0.4352  0.0319 -0.3003
    1CHOL    C129927   7.903   9.532   5.054  0.0115  0.1788 -0.1014
    1CHOL    C229928   7.761   9.368   4.631 -0.1528  0.0055  0.1530
    1CHOL   ROH29929  25.257  16.621   3.320  0.3868  0.0063  0.1782
    1CHOL    R129930  25.066  16.593   3.527  0.2963  0.2933  0.1369
    1CHOL    R229931  24.995  16.348   3.633 -0.1826  0.3828  0.0429
    1CHOL    R329932  25.062  16.466   3.868  0.0033  0.1808  0.0948
    1CHOL    R429933  24.920  16.222   3.946 -0.3626  0.3472 -0.0131
    1CHOL    R529934  24.875  16.425   4.011 -0.0602  0.3926  0.0792
    1CHOL    C129935  24.940  16.260   4.349 -0.2928  0.1369  0.0030
    1CHOL    C229936  24.832  16.256   4.708  0.2923 -0.2268  0.0451
    1CHOL   ROH29937  14.061   2.313   4.803  0.0529 -0.0645  0.0195
    1CHOL    R129938  13.837   2.188   4.924 -0.1431  0.2498 -0.0059
    1CHOL    R229939  13.853   2.059   5.168 -0.2367 -0.1635 -0.2065
    1CHOL    R329940  13.648   2.226   5.233  0.1797  0.2165  0.1996
    1CHOL    R429941  13.638   2.016   5.436 -0.2789 -0.2165 -0.2493
    1CHOL    R529942  13.474   2.081   5.309 -0.1640  0.4687 -0.0800
    1CHOL    C129943  13.322   2.148   5.652  0.0874  0.1094  0.1071
    1CHOL    C229944  13.287   2.158   6.074 -0.0819 -0.1156  0.1503
    1CHOL   ROH29945  21.724  20.606   3.109 -0.1023 -0.0430 -0.0540
    1CHOL    R129946  21.706  20.539   3.384 -0.0331 -0.0485 -0.0510
    1CHOL    R229947  21.831  20.316   3.491  0.0624 -0.0039 -0.0715
    1CHOL    R329948  21.938  20.499   3.662  0.0269  0.0333 -0.0885
    1CHOL    R429949  21.908  20.256   3.823  0.1494  0.0163 -0.0875
    1CHOL    R529950  21.831  20.454   3.871  0.0834 -0.0123 -0.0683
    1CHOL    C129951  22.053  20.393   4.176  0.1668  0.0633 -0.1127
    1CHOL    C229952  22.041  20.460   4.507 -0.0547  0.1253  0.0111
    1CHOL   ROH29953  18.912  20.315   5.403  0.0414 -0.0107 -0.0308
    1CHOL    R129954  18.875  20.227   5.136 -0.0663  0.0299 -0.0300
    1CHOL    R229955  19.023  20.021   5.025 -0.0163  0.1351 -0.1647
    1CHOL    R329956  18.777  19.917   4.972  0.0077  0.0133 -0.0422
    1CHOL    R429957  18.945  19.832   4.747 -0.0990  0.2282 -0.2049
    1CHOL    R529958  18.755  19.938   4.734 -0.1732  0.1194 -0.0168
    1CHOL    C129959  18.670  19.624   4.534 -0.1244  0.1679 -0.1133
    1CHOL    C229960  18.471  19.807   4.201 -0.1539 -0.5188 -0.0762
    1CHOL   ROH29961  21.580  10.733   6.741  0.0777  0.1721  0.1428
    1CHOL    R129962  21.540  10.541   6.537  0.1664  0.1915  0.1072
    1CHOL    R229963  21.340  10.564   6.349  0.1011  0.0909  0.1648
    1CHOL    R329964  21.545  10.537   6.174  0.0777  0.2834  0.1043
    1CHOL    R429965  21.305  10.550   6.005 -0.0311 -0.3290  0.1895
    1CHOL    R529966  21.458  10.394   6.002  0.2548 -0.0603  0.2886
    1CHOL    C129967  21.478  10.516   5.641 -0.1303 -0.3928  0.1471
    1CHOL    C229968  21.600  10.784   5.350  0.0740  0.1153  0.0189
    1CHOL   ROH29969  12.602   1.437   6.548 -0.0122 -0.1614  0.0141
    1CHOL    R129970  12.677   1.666   6.400 -0.0946 -0.1321  0.0181
    1CHOL    R229971  12.903   1.674   6.241 -0.0121  0.0019  0.1429
    1CHOL    R329972  12.725   1.751   6.050  0.0392 -0.1542  0.0297
    1CHOL    R429973  12.988   1.809   5.934  0.0706  0.1890  0.2468
    1CHOL    R529974  12.822   1.948   5.955 -0.1149 -0.0092  0.1620
    1CHOL    C129975  12.872   1.960   5.577  0.1669  0.1513  0.2010
    1CHOL    C229976  12.982   2.293   5.310 -0.1714 -0.0483  0.0007
    1CHOL   ROH29977  20.797  19.777   2.357 -0.0322 -0.0208 -0.0080
    1CHOL    R129978  20.813  19.704   2.630 -0.0235  0.0272  0.0042
    1CHOL    R229979  21.009  19.802   2.798 -0.0412  0.0858 -0.0106
    1CHOL    R329980  20.797  19.875   2.951 -0.0536  0.0771 -0.0235
    1CHOL    R429981  21.031  19.927   3.120 -0.0644  0.0595  0.0014
    1CHOL    R529982  20.857  19.807   3.173 -0.0723  0.0573 -0.0232
    1CHOL    C129983  20.844  20.069   3.450 -0.0896  0.0361 -0.0037
    1CHOL    C229984  21.007  19.969   3.875 -0.4812  0.0487 -0.2601
    1CHOL   ROH29985   2.521  20.395   5.954 -0.3172 -0.0406  0.1565
    1CHOL    R129986   2.575  20.542   5.718 -0.1710 -0.0074  0.2094
    1CHOL    R229987   2.708  20.433   5.502 -0.0781  0.0085  0.2575
    1CHOL    R329988   2.489  20.516   5.365  0.0050  0.0696  0.1599
    1CHOL    R429989   2.653  20.378   5.165 -0.0557 -0.1835  0.2840
    1CHOL    R529990   2.573  20.580   5.150  0.0891 -0.1369  0.1299
    1CHOL    C129991   2.414  20.424   4.841  0.0353 -0.2379  0.2078
    1CHOL    C229992   2.298  20.196   4.621 -0.1162  0.2922  0.0992
    1CHOL   ROH29993  15.820  16.404   5.593  0.1334  0.2860 -0.0003
    1CHOL    R129994  15.962  16.519   5.378  0.1449  0.0828 -0.1042
    1CHOL    R229995  16.110  16.369   5.199 -0.1178 -0.1219 -0.1567
    1CHOL    R329996  15.957  16.496   5.015 -0.0813  0.0091 -0.0973
    1CHOL    R429997  16.227  16.502   4.903 -0.0940 -0.0844 -0.1303
    1CHOL    R529998  16.096  16.673   4.933 -0.0085 -0.0317 -0.0601
    1CHOL    C129999  16.152  16.699   4.557 -0.0457  0.0603 -0.0591
    1CHOL    C230000  16.269  17.104   4.385 -0.0076  0.0946 -0.0571
    1CHOL   ROH30001   4.917  26.674   4.980  0.1926  0.0156  0.1795
    1CHOL    R130002   4.886  26.528   4.739  0.0839 -0.0771  0.2499
    1CHOL    R230003   4.829  26.649   4.497  0.0004 -0.1700  0.2299
    1CHOL    R330004   5.051  26.516   4.415 -0.0470 -0.2249  0.1856
    1CHOL    R430005   4.943  26.638   4.172  0.1065  0.0877  0.2549
    1CHOL    R530006   4.991  26.428   4.201 -0.0301  0.0201  0.0702
    1CHOL    C130007   5.218  26.506   3.904  0.1236  0.1862  0.2278
    1CHOL    C230008   5.575  26.549   3.815 -0.0578 -0.0220 -0.0247
    1CHOL   ROH30009   9.580  16.157   3.488  0.1892  0.0964 -0.0087
    1CHOL    R130010   9.443  16.143   3.735  0.1651  0.1092 -0.0211
    1CHOL    R230011   9.564  16.202   3.976  0.1766  0.0027  0.0007
    1CHOL    R330012   9.355  16.374   4.002  0.2551  0.0955  0.0202
    1CHOL    R430013   9.434  16.309   4.278  0.2625  0.0762  0.0118
    1CHOL    R530014   9.234  16.291   4.192  0.2438  0.1595  0.0400
    1CHOL    C130015   9.163  16.533   4.479  0.3863  0.2060  0.0366
    1CHOL    C230016   9.266  16.725   4.786 -0.2600  0.2291 -0.2713
    1CHOL   ROH30017  16.003  20.159   4.954 -0.0906  0.0807  0.0177
    1CHOL    R130018  15.981  20.223   4.680  0.0177  0.1683  0.0290
    1CHOL    R230019  15.860  20.055   4.496  0.2030  0.1683 -0.0954
    1CHOL    R330020  15.711  20.275   4.441  0.1119  0.1087 -0.0924
    1CHOL    R430021  15.670  20.100   4.211  0.3694  0.1898 -0.2041
    1CHOL    R530022  15.736  20.307   4.205  0.2543  0.2320 -0.0626
    1CHOL    C130023  15.421  20.333   3.993  0.3808  0.1463 -0.2645
    1CHOL    C230024  15.297  20.677   3.899 -0.1314  0.3296 -0.0313
    1CHOL   ROH30025  13.750  26.350   5.455  0.0937 -0.0539 -0.1088
    1CHOL    R130026  13.889  26.582   5.371 -0.0038 -0.0107 -0.1523
    1CHOL    R230027  13.986  26.613   5.114 -0.0938  0.0189 -0.1808
    1CHOL    R330028  13.843  26.844   5.123 -0.1611 -0.0235 -0.1379
    1CHOL    R430029  13.991  26.858   4.871 -0.2241  0.0278 -0.1756
    1CHOL    R530030  13.989  27.008   5.029 -0.2305  0.0232 -0.1685
    1CHOL    C130031  13.859  27.218   4.737 -0.3630 -0.0069 -0.1324
    1CHOL    C230032  13.840  27.526   4.938 -0.0191 -0.0373 -0.1003
    1CHOL   ROH30033  23.213  15.129   6.220 -0.3339  0.1665  0.0227
    1CHOL    R130034  23.293  15.000   5.981 -0.0946  0.1364  0.1165
    1CHOL    R230035  23.129  14.983   5.759 -0.0193 -0.2176  0.0820
    1CHOL    R330036  23.343  15.095   5.634 -0.1384  0.0072  0.0745
    1CHOL    R430037  23.187  14.972   5.418  0.0141 -0.2150  0.0875
    1CHOL    R530038  23.398  14.940   5.460  0.0518  0.0364  0.1067
    1CHOL    C130039  23.420  15.071   5.102 -0.0783 -0.0024  0.0837
    1CHOL    C230040  23.455  14.709   5.020 -0.1145  0.0071 -0.0562
    1CHOL   ROH30041  23.140  14.916   2.954 -0.0214  0.2257  0.0345
    1CHOL    R130042  23.152  14.873   3.234  0.1012  0.3334  0.0472
    1CHOL    R230043  23.038  15.047   3.416 -0.0510  0.2687  0.0182
    1CHOL    R330044  22.913  14.823   3.504  0.2267  0.1526  0.1256
    1CHOL    R430045  22.864  15.022   3.713 -0.2411  0.2771 -0.0916
    1CHOL    R530046  22.950  14.823   3.740  0.0473  0.4283  0.1561
    1CHOL    C130047  22.645  14.795   3.969 -0.0911  0.1730 -0.0547
    1CHOL    C230048  22.400  14.701   4.323  0.0383  0.0336  0.0054
    1CHOL   ROH30049   7.700   4.625   6.286 -0.0248  0.1565  0.0160
    1CHOL    R130050   7.575   4.540   6.047 -0.0345  0.2600 -0.0167
    1CHOL    R230051   7.559   4.700   5.822  0.1284  0.2872 -0.0127
    1CHOL    R330052   7.675   4.486   5.701  0.0041  0.2105  0.0027
    1CHOL    R430053   7.530   4.623   5.487  0.1080  0.2915 -0.0116
    1CHOL    R530054   7.513   4.413   5.541 -0.0274  0.3054 -0.0070
    1CHOL    C130055   7.622   4.378   5.177 -0.0207  0.2221  0.0034
    1CHOL    C230056   7.513   4.085   4.844 -0.3977  0.1040 -0.2052
    1CHOL   ROH30057  20.314   5.541   4.382  0.2602 -0.0525 -0.0013
    1CHOL    R130058  20.346   5.412   4.633  0.1561 -0.0672  0.0051
    1CHOL    R230059  20.519   5.506   4.827  0.0443 -0.0546  0.0996
    1CHOL    R330060  20.296   5.498   4.983 -0.0330 -0.1030 -0.0124
    1CHOL    R430061  20.517   5.453   5.169 -0.1109  0.0299  0.1133
    1CHOL    R530062  20.341   5.327   5.143 -0.0488 -0.0451  0.0536
    1CHOL    C130063  20.307   5.414   5.513 -0.2740  0.0337  0.0161
    1CHOL    C230064  20.502   5.223   5.755  0.2567 -0.1949  0.0027
    1CHOL   ROH30065  17.827  12.952   2.897  0.0133 -0.1441  0.0397
    1CHOL    R130066  17.813  13.090   3.144  0.0942 -0.0832  0.0104
    1CHOL    R230067  17.653  13.006   3.353 -0.0465  0.1189 -0.0135
    1CHOL    R330068  17.886  13.017   3.493 -0.0678 -0.0955  0.0425
    1CHOL    R430069  17.678  12.987   3.697 -0.1480  0.1134 -0.0062
    1CHOL    R530070  17.831  13.142   3.690  0.0027 -0.0316  0.0222
    1CHOL    C130071  17.911  12.987   4.029 -0.2271 -0.0910  0.0508
    1CHOL    C230072  17.644  13.135   4.309 -0.1376  0.1116  0.1932
    1CHOL   ROH30073  17.486   8.582   7.261 -0.2627 -0.1636  0.0711
    1CHOL    R130074  17.347   8.625   7.018 -0.2503 -0.0955  0.0756
    1CHOL    R230075  17.477   8.660   6.777 -0.2337  0.0671  0.1043
    1CHOL    R330076  17.315   8.456   6.697 -0.1520  0.0468 -0.0099
    1CHOL    R430077  17.366   8.612   6.453 -0.1266  0.1383  0.0571
    1CHOL    R530078  17.171   8.557   6.534 -0.1328  0.0561 -0.0189
    1CHOL    C130079  17.150   8.394   6.189  0.0123  0.1606 -0.0776
    1CHOL    C230080  17.239   8.585   5.864 -0.2046  0.1147 -0.0856
    1CHOL   ROH30081   0.139  13.685   4.804  0.0020 -0.1019 -0.1132
    1CHOL    R130082   0.355  13.716   4.623 -0.0198 -0.0817 -0.1376
    1CHOL    R230083   0.393  13.946   4.474 -0.0754 -0.0874 -0.1703
    1CHOL    R330084   0.640  13.939   4.587 -0.0674 -0.0306 -0.1873
    1CHOL    R430085   0.659  14.145   4.380 -0.0786 -0.1402 -0.2887
    1CHOL    R530086   0.790  13.973   4.404 -0.0805 -0.1252 -0.2115
    1CHOL    C130087   1.045  14.255   4.431 -0.0729 -0.1176 -0.3736
    1CHOL    C230088   1.190  14.725   4.478  0.2814  0.2292  0.2972
    1CHOL   ROH30089   9.929   9.049   6.222 -0.1229  0.0065 -0.0434
    1CHOL    R130090   9.843   9.063   5.953 -0.1688  0.0430 -0.0287
    1CHOL    R230091  10.005   8.993   5.741 -0.1740  0.1440 -0.0770
    1CHOL    R330092   9.797   8.830   5.678 -0.1318  0.0910 -0.0727
    1CHOL    R430093   9.936   8.875   5.424 -0.3117  0.3336 -0.1179
    1CHOL    R530094   9.724   8.907   5.463 -0.2978  0.2035  0.0282
    1CHOL    C130095   9.701   8.653   5.179 -0.3522  0.3943 -0.1377
    1CHOL    C230096   9.440   8.778   4.978  0.0063 -0.0788  0.0245
    1CHOL   ROH30097  21.465  18.423   5.524 -0.1255  0.1491  0.0173
    1CHOL    R130098  21.515  18.531   5.267  0.2931  0.1651  0.0964
    1CHOL    R230099  21.752  18.490   5.131  0.2470 -0.4609  0.1634
    1CHOL    R330100  21.586  18.401   4.935  0.0350  0.1338  0.0530
    1CHOL    R430101  21.844  18.437   4.802  0.1557 -0.4367  0.1347
    1CHOL    R530102  21.654  18.521   4.740  0.3833  0.1204  0.1653
    1CHOL    C130103  21.742  18.322   4.427 -0.0962  0.1357  0.0145
    1CHOL    C230104  21.906  18.039   4.149  0.2006 -0.1314 -0.1112
    1CHOL   ROH30105  19.194  22.885   2.821  0.0529  0.1763  0.2101
    1CHOL    R130106  19.190  22.882   3.104  0.2667 -0.1144  0.2126
    1CHOL    R230107  18.955  22.887   3.249  0.3830  0.3234  0.3851
    1CHOL    R330108  19.059  22.664   3.364 -0.0833 -0.0769  0.0777
    1CHOL    R430109  18.880  22.776   3.568  0.5744  0.3901  0.4566
    1CHOL    R530110  19.091  22.724   3.594  0.4976 -0.2720  0.0733
    1CHOL    C130111  18.935  22.502   3.861  0.2483  0.0532  0.2096
    1CHOL    C230112  18.945  22.414   4.272 -0.0297 -0.1131  0.1420
    1CHOL   ROH30113  18.954   7.143   3.999 -0.0711  0.0555  0.0721
    1CHOL    R130114  18.902   7.037   4.256  0.1055  0.1184  0.1353
    1CHOL    R230115  19.001   7.152   4.487 -0.0881  0.4284  0.0714
    1CHOL    R330116  18.740   7.150   4.561 -0.0939  0.0294  0.0631
    1CHOL    R430117  18.888   7.180   4.812 -0.1488  0.3228  0.0600
    1CHOL    R530118  18.737   7.029   4.768  0.0903  0.0705  0.0894
    1CHOL    C130119  18.577   7.196   5.071 -0.1895 -0.1132  0.0455
    1CHOL    C230120  18.422   6.988   5.372 -0.0643 -0.1139 -0.0885
    1CHOL   ROH30121  13.742  11.312   6.248  0.3533  0.2181  0.0230
    1CHOL    R130122  13.895  11.297   6.010  0.3297 -0.2266  0.0253
    1CHOL    R230123  13.914  11.066   5.860 -0.3183 -0.3150  0.0326
    1CHOL    R330124  13.830  11.228   5.659  0.1308 -0.0693  0.0314
    1CHOL    R430125  13.877  10.968   5.531 -0.4008 -0.1404 -0.0098
    1CHOL    R530126  13.961  11.160   5.470  0.0590 -0.3113  0.0733
    1CHOL    C130127  13.777  11.064   5.150 -0.0274  0.1919 -0.0356
    1CHOL    C230128  14.024  11.158   4.818 -0.0369  0.3834  0.0065
    1CHOL   ROH30129  20.884  16.097   2.547  0.0979  0.2231 -0.0792
    1CHOL    R130130  20.799  16.186   2.802 -0.0367  0.0274 -0.0539
    1CHOL    R230131  20.673  16.020   2.983  0.1857 -0.2067 -0.1130
    1CHOL    R330132  20.873  16.103   3.148  0.0663  0.0199 -0.0761
    1CHOL    R430133  20.680  15.972   3.325  0.0858 -0.0304 -0.0840
    1CHOL    R530134  20.760  16.173   3.348 -0.0644  0.0427 -0.1536
    1CHOL    C130135  20.871  16.021   3.680 -0.0844  0.2850 -0.0325
    1CHOL    C230136  20.962  16.050   4.060  0.0521  0.1645 -0.3184
    1CHOL   ROH30137  21.025   3.773   4.352  0.0323 -0.1098  0.1633
    1CHOL    R130138  20.817   3.838   4.532 -0.1260  0.1700 -0.1158
    1CHOL    R230139  20.858   3.860   4.805 -0.5088 -0.1537 -0.0396
    1CHOL    R330140  20.748   4.106   4.769  0.0487  0.1220 -0.0012
    1CHOL    R430141  20.710   4.048   5.054 -0.6812 -0.1877 -0.1114
    1CHOL    R530142  20.555   4.106   4.912 -0.2832  0.2982 -0.4070
    1CHOL    C130143  20.520   4.389   5.166 -0.2581  0.0512 -0.1172
    1CHOL    C230144  20.494   4.627   5.480  0.1765 -0.1822  0.3986
    1CHOL   ROH30145  20.649  21.210   5.410  0.0238  0.1520  0.1206
    1CHOL    R130146  20.623  21.020   5.202 -0.0625  0.1366  0.1466
    1CHOL    R230147  20.684  21.078   4.939 -0.1829  0.1186  0.1210
    1CHOL    R330148  20.844  20.860   4.962 -0.1662  0.1223  0.0568
    1CHOL    R430149  20.803  20.892   4.673  0.1354  0.4381  0.0299
    1CHOL    R530150  20.767  20.711   4.790  0.0377  0.2944 -0.1997
    1CHOL    C130151  21.022  20.578   4.540  0.3364  0.6274 -0.0835
    1CHOL    C230152  21.084  20.413   4.193  0.2322  0.0603 -0.0904
    1CHOL   ROH30153  17.770  22.240   5.227  0.1465 -0.1082  0.0403
    1CHOL    R130154  17.904  22.177   4.986  0.0670 -0.1218 -0.0002
    1CHOL    R230155  17.804  21.994   4.804 -0.0260 -0.0821  0.0123
    1CHOL    R330156  17.832  22.201   4.630 -0.0211 -0.0758  0.0199
    1CHOL    R430157  17.806  21.962   4.460  0.0297 -0.0772  0.0117
    1CHOL    R530158  17.966  22.110   4.453  0.0160 -0.0597  0.0386
    1CHOL    C130159  17.834  22.137   4.096  0.0666 -0.0688  0.0186
    1CHOL    C230160  17.477  21.972   4.025  0.2000  0.1689  0.3942
    1CHOL   ROH30161  15.653  13.567   6.194 -0.0790  0.0356 -0.0656
    1CHOL    R130162  15.809  13.567   5.958 -0.1070  0.0599 -0.0844
    1CHOL    R230163  16.000  13.376   5.905 -0.0009  0.1544 -0.0535
    1CHOL    R330164  15.861  13.345   5.674 -0.0127  0.0094 -0.0277
    1CHOL    R430165  16.141  13.299   5.599  0.0196  0.2822 -0.0762
    1CHOL    R530166  16.002  13.441   5.506 -0.1363  0.1439 -0.0563
    1CHOL    C130167  16.091  13.226   5.203  0.0204  0.2206 -0.0652
    1CHOL    C230168  15.877  13.079   4.946 -0.0217  0.0933 -0.0450
    1CHOL   ROH30169  23.892   6.098   6.425 -0.1565 -0.1419  0.2427
    1CHOL    R130170  23.744   5.877   6.327 -0.1116 -0.1387  0.1624
    1CHOL    R230171  23.619   5.879   6.081 -0.2064 -0.0352  0.2032
    1CHOL    R330172  23.762   5.651   6.042 -0.1298  0.0448  0.0162
    1CHOL    R430173  23.502   5.596   5.921 -0.2222 -0.0722  0.2823
    1CHOL    R530174  23.603   5.475   6.071 -0.0043 -0.0423  0.1538
    1CHOL    C130175  23.568   5.218   5.791 -0.1595 -0.0185  0.1529
    1CHOL    C230176  23.473   4.916   5.645  0.1120 -0.0510 -0.0408
    1CHOL   ROH30177  26.608  11.964   6.382  0.0949 -0.1720 -0.0160
    1CHOL    R130178  26.518  12.009   6.118  0.1717  0.0728 -0.0032
    1CHOL    R230179  26.689  12.080   5.913  0.3051 -0.1716  0.0201
    1CHOL    R330180  26.580  11.864   5.789 -0.0896  0.0573 -0.0485
    1CHOL    R430181  26.729  12.005   5.578  0.1382 -0.1162 -0.0129
    1CHOL    R530182  26.519  11.946   5.572  0.0257  0.2503 -0.0127
    1CHOL    C130183  26.650  11.758   5.267 -0.3296  0.1309 -0.0964
    1CHOL    C230184  26.707  11.895   4.996 -0.4273 -0.2402  0.2409
    1CHOL   ROH30185  18.995  24.085   5.175  0.3068  0.1143  0.1062
    1CHOL    R130186  18.851  24.198   4.960  0.0553  0.0605  0.2398
    1CHOL    R230187  18.749  24.455   4.968  0.2480  0.1486  0.2150
    1CHOL    R330188  18.890  24.484   4.737 -0.0715 -0.1261 -0.0230
    1CHOL    R430189  18.705  24.710   4.739  0.2142  0.0969  0.1656
    1CHOL    R530190  18.730  24.565   4.579 -0.2136 -0.0030  0.1879
    1CHOL    C130191  18.812  24.886   4.389 -0.1056 -0.1910 -0.0866
    1CHOL    C230192  18.726  25.101   4.028  0.0095  0.0026  0.2134
    1CHOL   ROH30193  18.769  12.683   3.090  0.1577 -0.1761  0.1229
    1CHOL    R130194  18.835  12.864   3.297  0.2083 -0.0931  0.0345
    1CHOL    R230195  18.667  12.915   3.511  0.1944  0.1075 -0.0235
    1CHOL    R330196  18.886  12.847   3.657  0.1351  0.0829  0.0547
    1CHOL    R430197  18.704  12.969   3.850  0.0426  0.0306  0.0060
    1CHOL    R530198  18.911  13.025   3.814  0.0579  0.0490  0.1078
    1CHOL    C130199  18.931  12.937   4.185 -0.1014 -0.0371  0.0967
    1CHOL    C230200  18.919  12.792   4.628 -0.1175 -0.0344 -0.0190
    1CHOL   ROH30201  13.991  21.828   4.680 -0.4113  0.1493 -0.0807
    1CHOL    R130202  13.824  21.891   4.461 -0.1878  0.2476 -0.2277
    1CHOL    R230203  13.915  22.026   4.238  0.1597 -0.0653 -0.2864
    1CHOL    R330204  13.812  21.811   4.106 -0.1028 -0.0114 -0.1744
    1CHOL    R430205  13.824  22.023   3.904  0.2072 -0.1453 -0.2988
    1CHOL    R530206  13.649  21.905   3.958  0.0416  0.1148 -0.2541
    1CHOL    C130207  13.674  21.820   3.587 -0.0115 -0.1414 -0.2007
    1CHOL    C230208  13.587  21.832   3.242  0.1853 -0.0723 -0.1205
    1CHOL   ROH30209  29.754   5.137   6.416 -0.1789  0.0834 -0.1248
    1CHOL    R130210   0.030   5.173   6.170 -0.0034  0.1794 -0.0170
    1CHOL    R230211  29.783   5.089   5.929  0.2355  0.1368 -0.1080
    1CHOL    R330212  29.825   5.348   5.857  0.1446  0.1664 -0.0559
    1CHOL    R430213   0.004   5.194   5.610  0.3328  0.2085 -0.0602
    1CHOL    R530214   0.144   5.337   5.697  0.2263  0.2677  0.0239
    1CHOL    C130215   0.090   5.499   5.356  0.3045  0.2782  0.0164
    1CHOL    C230216   0.085   5.323   4.950  0.1060  0.3929 -0.0930
    1CHOL   ROH30217  23.771  23.843   4.228  0.0761 -0.1242 -0.0509
    1CHOL    R130218  23.743  23.868   4.509  0.0807 -0.0947 -0.0531
    1CHOL    R230219  23.700  24.111   4.633  0.2031 -0.0644 -0.0677
    1CHOL    R330220  23.486  23.981   4.740  0.1318  0.0519 -0.0672
    1CHOL    R430221  23.543  24.200   4.928  0.2803 -0.0066 -0.0438
    1CHOL    R530222  23.526  23.988   4.977  0.1546 -0.0028 -0.0696
    1CHOL    C130223  23.252  24.129   5.201  0.2580  0.1362 -0.0294
    1CHOL    C230224  22.952  24.421   5.224 -0.1091  0.2012  0.0855
    1CHOL   ROH30225   1.073  29.009   5.382  0.0153  0.2680  0.2278
    1CHOL    R130226   0.892  29.128   5.201  0.0750  0.1522  0.0899
    1CHOL    R230227   0.923  29.387   5.108  0.0657  0.1170 -0.0071
    1CHOL    R330228   0.906  29.266   4.865  0.2034  0.0079  0.0352
    1CHOL    R430229   0.959  29.548   4.804  0.2401 -0.0205 -0.0622
    1CHOL    R530230   0.795  29.427   4.726  0.2833 -0.0532 -0.1017
    1CHOL    C130231   0.963  29.529   4.399  0.4710 -0.2030 -0.0546
    1CHOL    C230232   1.279  29.692   4.140  0.1596  0.1432 -0.1061
    1CHOL   ROH30233  18.494  19.765   2.612  0.1055 -0.2101  0.1073
    1CHOL    R130234  18.658  19.901   2.798  0.0825 -0.1701  0.0993
    1CHOL    R230235  18.638  19.861   3.071  0.0352 -0.0974  0.1086
    1CHOL    R330236  18.905  19.810   3.049  0.0349 -0.1188  0.1645
    1CHOL    R430237  18.866  19.883   3.330  0.0301  0.1692  0.0926
    1CHOL    R530238  19.008  19.972   3.192  0.0317  0.0284  0.0019
    1CHOL    C130239  19.248  19.848   3.461  0.0270  0.3040  0.1357
    1CHOL    C230240  19.668  19.847   3.469  0.2011 -0.1990 -0.1727
    1CHOL   ROH30241  10.807  17.741   5.641 -0.1642 -0.0113  0.1321
    1CHOL    R130242  10.736  17.923   5.436 -0.1326 -0.0877  0.0525
    1CHOL    R230243  10.549  17.863   5.243 -0.1984 -0.1113  0.1254
    1CHOL    R330244  10.434  18.094   5.328 -0.0850 -0.0172  0.0285
    1CHOL    R430245  10.365  18.078   5.043 -0.1112 -0.1180  0.0368
    1CHOL    R530246  10.461  18.246   5.145 -0.0248 -0.1143 -0.0454
    1CHOL    C130247  10.151  18.420   5.008  0.0461 -0.0335 -0.1058
    1CHOL    C230248  10.139  18.406   4.670  0.1366  0.6662 -0.3060
    1CHOL   ROH30249  18.314   9.178   6.845  0.0616 -0.1531  0.0888
    1CHOL    R130250  18.182   9.191   6.595  0.1132 -0.0019  0.0681
    1CHOL    R230251  18.291   9.320   6.376  0.2300 -0.0014  0.1230
    1CHOL    R330252  18.249   9.080   6.255  0.1096  0.0566  0.0489
    1CHOL    R430253  18.301   9.267   6.035  0.3291  0.0685  0.1150
    1CHOL    R530254  18.129   9.135   6.055  0.2292  0.1861  0.0136
    1CHOL    C130255  18.268   9.011   5.722  0.2737  0.1637  0.0408
    1CHOL    C230256  18.533   9.045   5.533  0.3020  0.0220  0.2497
    1CHOL   ROH30257  17.217   8.379   3.651 -0.0259 -0.0663 -0.2023
    1CHOL    R130258  17.316   8.364   3.916  0.0135 -0.0164 -0.2135
    1CHOL    R230259  17.222   8.526   4.119  0.1026  0.0805 -0.2471
    1CHOL    R330260  17.179   8.289   4.244  0.0422  0.1337 -0.1672
    1CHOL    R430261  17.157   8.490   4.457 -0.0221  0.2172 -0.2560
    1CHOL    R530262  17.285   8.314   4.458 -0.0347  0.2103 -0.1389
    1CHOL    C130263  17.077   8.246   4.770 -0.1515  0.3468 -0.1861
    1CHOL    C230264  17.076   8.275   5.130 -0.1727  0.1615 -0.5022
    1CHOL   ROH30265   7.680  29.578   3.262 -0.1574  0.1297 -0.0293
    1CHOL    R130266   7.593  29.568   3.531 -0.0820  0.0550 -0.0075
    1CHOL    R230267   7.719  29.415   3.723  0.0547  0.1090 -0.0555
    1CHOL    R330268   7.732  29.650   3.858 -0.0444  0.1035 -0.0350
    1CHOL    R430269   7.869  29.457   4.031  0.0485  0.1439 -0.0571
    1CHOL    R530270   7.704  29.589   4.088 -0.0093  0.0677 -0.0386
    1CHOL    C130271   7.968  29.704   4.338 -0.0482  0.1589 -0.0387
    1CHOL    C230272   8.070  29.816   4.755 -0.4142 -0.0606 -0.3449
    1CHOL   ROH30273   2.298  17.246   3.361  0.1379 -0.2251 -0.0058
    1CHOL    R130274   2.266  17.116   3.610 -0.1492 -0.2379 -0.0484
    1CHOL    R230275   2.326  17.238   3.851 -0.0203 -0.3981 -0.0138
    1CHOL    R330276   2.071  17.168   3.913 -0.1570 -0.0017 -0.0865
    1CHOL    R430277   2.200  17.217   4.172  0.0258 -0.6415 -0.0080
    1CHOL    R530278   2.093  17.036   4.113 -0.3493 -0.3656 -0.2793
    1CHOL    C130279   1.888  17.139   4.418 -0.0757 -0.4114 -0.0729
    1CHOL    C230280   2.177  17.210   4.711 -0.0151  0.0792 -0.0560
    1CHOL   ROH30281   9.486  19.055   3.231 -0.0039 -0.0651 -0.0425
    1CHOL    R130282   9.426  19.091   3.505  0.0711 -0.0619 -0.0255
    1CHOL    R230283   9.620  19.144   3.695  0.1045  0.1260 -0.1062
    1CHOL    R330284   9.461  19.358   3.751 -0.0430  0.0130 -0.0906
    1CHOL    R430285   9.643  19.339   3.979  0.0012  0.1565 -0.1185
    1CHOL    R530286   9.426  19.345   3.987 -0.0006 -0.0017 -0.0871
    1CHOL    C130287   9.508  19.653   4.198 -0.1975  0.0681 -0.1110
    1CHOL    C230288   9.677  19.909   4.338 -0.0075  0.0852  0.1770
    1CHOL   ROH30289  12.870  11.864   3.159 -0.0742 -0.2173 -0.0330
    1CHOL    R130290  12.885  11.887   3.440 -0.5990  0.0628 -0.0158
    1CHOL    R230291  12.687  11.790   3.608 -0.4815 -0.6796 -0.2613
    1CHOL    R330292  12.894  11.659   3.724 -0.0442  0.2753  0.1484
    1CHOL    R430293  12.678  11.645   3.921 -0.4134 -0.7009 -0.2698
    1CHOL    R530294  12.880  11.718   3.955 -0.7720  0.2592  0.1284
    1CHOL    C130295  12.868  11.437   4.213  0.0367  0.1833  0.1099
    1CHOL    C230296  12.725  11.116   4.442 -0.1588  0.0647  0.3407
    1CHOL   ROH30297   1.420  16.809   3.106  0.0560  0.0276 -0.0262
    1CHOL    R130298   1.323  16.801   3.372 -0.0902 -0.0808 -0.0829
    1CHOL    R230299   1.221  16.572   3.486  0.1843 -0.2168 -0.1177
    1CHOL    R330300   1.405  16.624   3.679 -0.0068  0.0823 -0.0079
    1CHOL    R430301   1.237  16.411   3.791  0.1755 -0.1040 -0.0564
    1CHOL    R530302   1.283  16.603   3.884 -0.1289 -0.0057 -0.0829
    1CHOL    C130303   1.419  16.366   4.151 -0.0090  0.2425  0.0823
    1CHOL    C230304   1.334  15.984   4.368  0.1127 -0.0412  0.0732
    1CHOL   ROH30305  24.225  10.960   3.082 -0.0144  0.0433  0.1268
    1CHOL    R130306  24.320  11.031   3.339 -0.0854  0.0510  0.1517
    1CHOL    R230307  24.156  11.041   3.561 -0.1116 -0.1211  0.1439
    1CHOL    R330308  24.342  10.873   3.666  0.0026 -0.0131  0.1140
    1CHOL    R430309  24.186  10.962   3.896 -0.1370 -0.2638  0.1133
    1CHOL    R530310  24.402  10.973   3.875 -0.1415 -0.0672  0.1798
    1CHOL    C130311  24.378  10.760   4.190 -0.0446 -0.2455  0.0674
    1CHOL    C230312  24.609  10.604   4.465  0.0314 -0.0956  0.4828
    1CHOL   ROH30313  10.055  27.702   4.688  0.0467 -0.0304  0.1166
    1CHOL    R130314  10.288  27.559   4.617  0.0734 -0.0055  0.1518
    1CHOL    R230315  10.329  27.458   4.364  0.1218 -0.0048  0.1572
    1CHOL    R330316  10.562  27.599   4.380  0.1020  0.0231  0.1904
    1CHOL    R430317  10.643  27.330   4.295  0.1318  0.0833  0.0366
    1CHOL    R530318  10.720  27.441   4.466  0.1426  0.0053  0.0800
    1CHOL    C130319  11.044  27.387   4.271  0.1189  0.1609 -0.0024
    1CHOL    C230320  11.356  27.330   4.441  0.0537 -0.3230 -0.1786
    1CHOL   ROH30321  22.309   7.773   3.819 -0.0891 -0.0670 -0.0834
    1CHOL    R130322  22.187   7.766   4.074  0.2231 -0.0519  0.0714
    1CHOL    R230323  22.293   7.896   4.293  0.2825  0.3096 -0.1602
    1CHOL    R330324  22.046   8.008   4.306  0.1088 -0.0776  0.0280
    1CHOL    R430325  22.176   8.087   4.557  0.2818  0.3559 -0.1940
    1CHOL    R530326  21.983   7.988   4.537  0.4121  0.0226  0.1218
    1CHOL    C130327  21.876   8.303   4.723  0.1183  0.0194 -0.0371
    1CHOL    C230328  22.111   8.576   4.918 -0.0169 -0.0584 -0.0585
    1CHOL   ROH30329  20.199  11.307   6.727 -0.5858 -0.2361 -0.0672
    1CHOL    R130330  20.178  11.416   6.467 -0.3138 -0.1329 -0.0484
    1CHOL    R230331  20.393  11.431   6.294 -0.1632 -0.1796  0.1387
    1CHOL    R330332  20.226  11.298   6.126 -0.0910 -0.0338 -0.0548
    1CHOL    R430333  20.417  11.431   5.949  0.0138  0.1069  0.1472
    1CHOL    R530334  20.200  11.444   5.939  0.0141  0.1291  0.0504
    1CHOL    C130335  20.275  11.306   5.591  0.1849  0.4107 -0.0296
    1CHOL    C230336  20.267  11.416   5.206 -0.1620 -0.2094 -0.1102
    1CHOL   ROH30337   4.569   5.275   6.165  0.0175 -0.0786  0.0473
    1CHOL    R130338   4.490   5.152   5.922  0.1878 -0.0713 -0.0160
    1CHOL    R230339   4.226   5.135   5.843  0.2033 -0.3198 -0.0744
    1CHOL    R330340   4.319   5.255   5.618  0.1331 -0.1245  0.0023
    1CHOL    R430341   4.042   5.186   5.555  0.0854  0.1124  0.0719
    1CHOL    R530342   4.218   5.133   5.439 -0.0259  0.1462 -0.0811
    1CHOL    C130343   4.022   5.328   5.176 -0.0491  0.5475  0.2290
    1CHOL    C230344   3.570   5.206   5.042  0.4066 -0.0485  0.1619
    1CHOL   ROH30345  23.800   4.808   6.613 -0.1408 -0.3419  0.0777
    1CHOL    R130346  23.564   4.832   6.458 -0.1206 -0.1339  0.0778
    1CHOL    R230347  23.420   5.068   6.441  0.0871 -0.0092  0.0806
    1CHOL    R330348  23.454   5.031   6.174  0.0505 -0.0342  0.0784
    1CHOL    R430349  23.227   5.214   6.195  0.0535 -0.0215  0.0988
    1CHOL    R530350  23.232   5.026   6.086  0.0333 -0.0353  0.1125
    1CHOL    C130351  23.146   5.265   5.801 -0.0006 -0.0520  0.1074
    1CHOL    C230352  22.859   5.335   5.542  0.0503  0.0142 -0.0883
    1CHOL   ROH30353  16.436  12.987   6.201  0.1477  0.1097 -0.1317
    1CHOL    R130354  16.467  12.997   5.920  0.1662 -0.1612 -0.1417
    1CHOL    R230355  16.507  12.770   5.766 -0.1032 -0.3424  0.0448
    1CHOL    R330356  16.292  12.864   5.630  0.0097 -0.1936 -0.0332
    1CHOL    R430357  16.398  12.650   5.461 -0.0704 -0.2565 -0.0009
    1CHOL    R530358  16.358  12.855   5.400  0.0889 -0.2276 -0.0082
    1CHOL    C130359  16.133  12.668   5.155  0.0545 -0.0667 -0.1007
    1CHOL    C230360  15.693  12.482   5.114 -0.1709  0.0157 -0.2405
    1CHOL   ROH30361  18.191   0.096   4.388  0.0086  0.0491 -0.1517
    1CHOL    R130362  18.182   0.017   4.659 -0.1019 -0.0927 -0.1945
    1CHOL    R230363  18.409  29.850   4.814 -0.1477 -0.3284 -0.1555
    1CHOL    R330364  18.276   0.161   4.980 -0.0719 -0.3261 -0.0980
    1CHOL    R430365  18.501   0.063   5.140  0.0111 -0.2939 -0.2077
    1CHOL    R530366  18.291   0.058   5.195  0.0446 -0.3039 -0.0984
    1CHOL    C130367  18.431   0.264   5.484  0.1742 -0.2718 -0.1841
    1CHOL    C230368  18.415   0.171   5.963  0.3236  0.1337 -0.0325
    1CHOL   ROH30369  26.734  11.476   6.378  0.1354 -0.2396 -0.0257
    1CHOL    R130370  26.797  11.556   6.114 -0.0057 -0.1675 -0.0387
    1CHOL    R230371  26.965  11.410   5.950  0.0049 -0.0613 -0.1273
    1CHOL    R330372  26.754  11.420   5.779 -0.0691 -0.1383 -0.0418
    1CHOL    R430373  26.989  11.382   5.606 -0.1238  0.0076 -0.1425
    1CHOL    R530374  26.838  11.539   5.588 -0.2080 -0.0661 -0.0570
    1CHOL    C130375  26.805  11.375   5.245 -0.2681 -0.0245 -0.0711
    1CHOL    C230376  27.023  11.385   4.824  0.2201 -0.3944 -0.1167
    1CHOL   ROH30377  16.666  12.388   3.127 -0.2013 -0.0699 -0.0264
    1CHOL    R130378  16.635  12.554   3.354 -0.1185  0.0140 -0.0769
    1CHOL    R230379  16.611  12.454   3.610 -0.1595  0.1043 -0.0505
    1CHOL    R330380  16.819  12.622   3.661 -0.0815  0.0248 -0.0996
    1CHOL    R430381  16.694  12.577   3.923 -0.0127  0.0246 -0.0563
    1CHOL    R530382  16.736  12.770   3.830  0.0228  0.0290 -0.0450
    1CHOL    C130383  16.937  12.806   4.152  0.1460 -0.0965 -0.1057
    1CHOL    C230384  16.988  13.004   4.419  0.3216  0.1681 -0.1383
    1CHOL   ROH30385  22.122  12.240   6.205 -0.0319 -0.1284  0.1137
    1CHOL    R130386  22.080  12.317   5.936  0.1757 -0.0972  0.0909
    1CHOL    R230387  22.237  12.224   5.729  0.1783 -0.2661  0.1776
    1CHOL    R330388  21.998  12.150   5.623  0.1527 -0.0246  0.0558
    1CHOL    R430389  22.190  12.123   5.402  0.2798 -0.3596  0.1893
    1CHOL    R530390  22.004  12.237   5.399  0.4111 -0.1277  0.0136
    1CHOL    C130391  21.938  11.995   5.111  0.3146 -0.1873  0.0818
    1CHOL    C230392  22.248  11.809   4.901 -0.1235 -0.1994 -0.1042
    1CHOL   ROH30393  16.640   5.842   4.104 -0.1148  0.0986 -0.0152
    1CHOL    R130394  16.560   5.787   4.370 -0.2615  0.2910 -0.0170
    1CHOL    R230395  16.738   5.784   4.581 -0.2943 -0.0063  0.0104
    1CHOL    R330396  16.564   5.963   4.689  0.0170  0.3437 -0.0471
    1CHOL    R430397  16.757   5.907   4.903 -0.2375 -0.1627  0.0678
    1CHOL    R530398  16.539   5.892   4.916 -0.2929  0.3079 -0.0874
    1CHOL    C130399  16.604   6.147   5.192  0.0879  0.0747  0.0473
    1CHOL    C230400  16.808   6.332   5.499 -0.0697 -0.2208  0.2313
    1CHOL   ROH30401  14.188  15.578   5.515 -0.2989  0.2333 -0.1197
    1CHOL    R130402  14.337  15.724   5.323 -0.2808  0.1542 -0.1656
    1CHOL    R230403  14.429  15.610   5.089 -0.0552 -0.0094 -0.0037
    1CHOL    R330404  14.297  15.818   4.974 -0.1333 -0.2067 -0.2833
    1CHOL    R430405  14.471  15.712   4.761  0.3394 -0.0564  0.0264
    1CHOL    R530406  14.461  15.919   4.830 -0.0290 -0.0473 -0.0519
    1CHOL    C130407  14.372  15.967   4.463  0.4958 -0.2689 -0.2186
    1CHOL    C230408  14.392  15.806   4.176 -0.1881  0.5863  0.1085
    1CHOL   ROH30409  16.910  11.405   3.190  0.2380  0.0586 -0.1351
    1CHOL    R130410  17.030  11.415   3.446  0.1885  0.0616 -0.1120
    1CHOL    R230411  17.085  11.653   3.575  0.0033  0.0618 -0.0283
    1CHOL    R330412  16.939  11.541   3.775  0.0456 -0.1022 -0.0876
    1CHOL    R430413  17.070  11.772   3.899 -0.2210  0.0145 -0.0198
    1CHOL    R530414  17.076  11.566   3.970 -0.0425  0.0121 -0.0399
    1CHOL    C130415  16.924  11.737   4.276 -0.3120 -0.1669 -0.0704
    1CHOL    C230416  17.079  11.735   4.674 -0.1139 -0.2617  0.2351
    1CHOL   ROH30417  16.026  11.460   6.823  0.1531 -0.2845  0.1175
    1CHOL    R130418  16.132  11.532   6.571 -0.1375  0.0338  0.0803
    1CHOL    R230419  16.274  11.355   6.412  0.3630  0.4457  0.0481
    1CHOL    R330420  16.089  11.425   6.226  0.0780 -0.1198  0.0978
    1CHOL    R430421  16.314  11.325   6.070  0.3754  0.5639  0.0382
    1CHOL    R530422  16.216  11.516   6.046 -0.2359  0.2823  0.0622
    1CHOL    C130423  16.163  11.372   5.696  0.1151  0.1018  0.0790
    1CHOL    C230424  15.973  11.355   5.241  0.2938 -0.0339 -0.0520
    1CHOL   ROH30425  21.784   4.352   4.839  0.0442 -0.1616  0.0016
    1CHOL    R130426  21.807   4.297   5.116  0.1380 -0.1304  0.0008
    1CHOL    R230427  21.672   4.089   5.239  0.1298 -0.0795  0.0834
    1CHOL    R330428  21.921   4.019   5.321  0.1442 -0.1333 -0.0073
    1CHOL    R430429  21.746   3.945   5.544  0.2387  0.1322  0.1579
    1CHOL    R530430  21.923   4.071   5.555  0.3072  0.0554 -0.0493
    1CHOL    C130431  22.023   3.796   5.799  0.3158  0.2051  0.1161
    1CHOL    C230432  22.374   3.674   5.963 -0.2368  0.0120  0.1375
    1CHOL   ROH30433  25.505  10.944   3.504 -0.0120  0.1621 -0.1254
    1CHOL    R130434  25.745  10.999   3.642 -0.1364  0.1829  0.0869
    1CHOL    R230435  25.752  11.051   3.914 -0.3401 -0.1542  0.1625
    1CHOL    R330436  25.934  10.849   3.915 -0.1779 -0.0131  0.0094
    1CHOL    R430437  26.011  11.019   4.141 -0.3552 -0.1526  0.1796
    1CHOL    R530438  26.140  10.954   3.978 -0.2718  0.0972  0.1406
    1CHOL    C130439  26.331  10.809   4.275 -0.2117 -0.0194  0.0458
    1CHOL    C230440  26.390  10.783   4.639 -0.0127  0.1531  0.2914
    1CHOL   ROH30441  13.968   4.598   4.720 -0.0318  0.0553  0.0993
    1CHOL    R130442  14.005   4.422   4.939 -0.1417 -0.0453  0.0379
    1CHOL    R230443  14.031   4.511   5.199 -0.0102 -0.1469  0.0609
    1CHOL    R330444  13.825   4.339   5.244 -0.1540  0.0187  0.0479
    1CHOL    R430445  13.914   4.422   5.512  0.1124 -0.3035  0.0631
    1CHOL    R530446  13.892   4.217   5.439 -0.1426 -0.2212 -0.1031
    1CHOL    C130447  13.654   4.208   5.736  0.0487 -0.2393  0.0522
    1CHOL    C230448  13.352   4.274   5.870 -0.1779  0.0991  0.1944
    1CHOL   ROH30449  26.704  11.871   3.022 -0.3391  0.0115 -0.2193
    1CHOL    R130450  26.762  11.703   3.242 -0.1170  0.1070 -0.2036
    1CHOL    R230451  26.681  11.763   3.500 -0.1124  0.0714 -0.1997
    1CHOL    R330452  26.571  11.514   3.488  0.1326 -0.0449 -0.1209
    1CHOL    R430453  26.645  11.550   3.770 -0.3646  0.3351 -0.0180
    1CHOL    R530454  26.703  11.384   3.640  0.0081  0.2378  0.2482
    1CHOL    C130455  26.521  11.193   3.915 -0.2816  0.3794  0.1617
    1CHOL    C230456  26.743  11.148   4.259 -0.0199 -0.0462  0.0183
    1CHOL   ROH30457  10.244  22.005   2.243  0.2303 -0.0256 -0.0307
    1CHOL    R130458  10.233  22.022   2.526  0.1173 -0.0358 -0.0358
    1CHOL    R230459  10.458  22.057   2.682  0.0446  0.0041  0.0480
    1CHOL    R330460  10.317  22.268   2.780 -0.0326 -0.0270  0.0095
    1CHOL    R430461  10.470  22.168   3.009  0.1961  0.2055 -0.0221
    1CHOL    R530462  10.255  22.200   3.001  0.1596  0.0572  0.0982
    1CHOL    C130463  10.345  22.430   3.292  0.2118  0.2937 -0.0991
    1CHOL    C230464  10.207  22.368   3.593 -0.0426  0.1602 -0.1460
    1CHOL   ROH30465  15.909  10.687   3.285  0.1872  0.0090  0.0623
    1CHOL    R130466  15.866  10.594   3.549 -0.0243 -0.0638  0.0025
    1CHOL    R230467  15.994  10.703   3.768 -0.0135 -0.2912  0.1030
    1CHOL    R330468  15.741  10.734   3.861 -0.0240 -0.0777  0.0114
    1CHOL    R430469  15.905  10.713   4.102 -0.1055 -0.1801  0.0763
    1CHOL    R530470  15.730  10.593   4.054 -0.1926 -0.0528  0.0297
    1CHOL    C130471  15.615  10.748   4.383 -0.1691  0.0850 -0.0252
    1CHOL    C230472  15.624  10.705   4.731 -0.4205  0.1574 -0.2096
    1CHOL   ROH30473  17.994   7.632   3.918 -0.0614  0.0958 -0.1498
    1CHOL    R130474  18.116   7.750   4.145 -0.0319  0.0956 -0.1649
    1CHOL    R230475  18.042   7.998   4.241 -0.0678  0.0670 -0.1133
    1CHOL    R330476  18.008   7.862   4.474  0.0232  0.0267 -0.1234
    1CHOL    R430477  18.060   8.138   4.557 -0.0822  0.0377 -0.0998
    1CHOL    R530478  18.166   7.960   4.624  0.0024  0.0757 -0.1351
    1CHOL    C130479  18.038   8.093   4.959 -0.0050 -0.0172 -0.1014
    1CHOL    C230480  17.956   8.505   5.131 -0.1040 -0.0632 -0.1118
    1CHOL   ROH30481   2.160  11.927   3.226  0.0049  0.1321  0.2100
    1CHOL    R130482   2.164  11.801   3.479  0.2076  0.0712  0.1790
    1CHOL    R230483   2.310  11.900   3.692  0.0611  0.2515  0.2030
    1CHOL    R330484   2.070  11.889   3.820  0.0718 -0.1574  0.2015
    1CHOL    R430485   2.267  11.933   4.033 -0.0080  0.2037  0.1988
    1CHOL    R530486   2.117  11.774   4.025  0.2675 -0.0602  0.2101
    1CHOL    C130487   2.017  11.942   4.352 -0.0381 -0.2080  0.1950
    1CHOL    C230488   2.117  11.897   4.726  0.2775 -0.0913  0.0225
    1CHOL   ROH30489  21.512  12.141   3.030  0.0940 -0.0305  0.0126
    1CHOL    R130490  21.562  12.249   3.287  0.0631 -0.0495  0.0268
    1CHOL    R230491  21.369  12.383   3.432  0.0872  0.0690 -0.0488
    1CHOL    R330492  21.432  12.201   3.624 -0.0886  0.0382 -0.0185
    1CHOL    R430493  21.341  12.437   3.772  0.3829  0.2491 -0.0498
    1CHOL    R530494  21.530  12.331   3.799  0.2332 -0.0478 -0.1276
    1CHOL    C130495  21.384  12.298   4.150  0.3900  0.3250 -0.0219
    1CHOL    C230496  21.232  12.616   4.388  0.2659  0.2295 -0.1628
    1CHOL   ROH30497  19.952  10.213   3.483 -0.0810 -0.3305  0.0048
    1CHOL    R130498  20.094  10.220   3.728 -0.0808 -0.2630  0.0029
    1CHOL    R230499  20.006  10.363   3.948 -0.0725 -0.1900 -0.0415
    1CHOL    R330500  20.031  10.123   4.073 -0.0863 -0.1526  0.0333
    1CHOL    R430501  19.999  10.318   4.290 -0.0340 -0.0769 -0.0252
    1CHOL    R530502  20.159  10.172   4.269 -0.0545 -0.1041  0.0012
    1CHOL    C130503  20.017  10.066   4.607 -0.0245  0.0241  0.0545
    1CHOL    C230504  19.987  10.024   4.913 -0.2385 -0.3031 -0.0145
    1CHOL   ROH30505  17.290  20.764   2.365  0.4310 -0.1564  0.0596
    1CHOL    R130506  17.282  20.689   2.638  0.1782 -0.0778  0.0783
    1CHOL    R230507  17.510  20.638   2.784  0.0385 -0.3335  0.2265
    1CHOL    R330508  17.405  20.823   2.953  0.1727 -0.1485  0.1087
    1CHOL    R430509  17.584  20.662   3.121 -0.1329 -0.3222  0.2627
    1CHOL    R530510  17.373  20.704   3.159 -0.1003 -0.0436  0.1266
    1CHOL    C130511  17.528  20.850   3.476 -0.1066 -0.1421  0.1732
    1CHOL    C230512  17.850  20.772   3.668 -0.1630 -0.2243  0.0356
    1CHOL   ROH30513  26.414  10.522   6.541  0.0203  0.1633 -0.1460
    1CHOL    R130514  26.371  10.631   6.284 -0.0732  0.1585 -0.1327
    1CHOL    R230515  26.563  10.623   6.085 -0.0785  0.3179 -0.1430
    1CHOL    R330516  26.364  10.507   5.942 -0.0019  0.1877 -0.1459
    1CHOL    R430517  26.593  10.514   5.759 -0.0082  0.3808 -0.1578
    1CHOL    R530518  26.393  10.592   5.719 -0.0721  0.2399 -0.1382
    1CHOL    C130519  26.424  10.341   5.434  0.1046  0.2951 -0.1691
    1CHOL    C230520  26.430  10.391   5.032 -0.0065  0.1573  0.2476
    1CHOL   ROH30521   2.306  15.696   3.318  0.2408  0.2019 -0.0230
    1CHOL    R130522   2.355  15.798   3.577 -0.0665  0.0612  0.0945
    1CHOL    R230523   2.188  15.748   3.791 -0.0408 -0.5044 -0.0101
    1CHOL    R330524   2.417  15.660   3.908  0.1124 -0.1314 -0.0151
    1CHOL    R430525   2.221  15.667   4.126  0.1243 -0.3327  0.0173
    1CHOL    R530526   2.417  15.762   4.124 -0.0044 -0.0445 -0.0500
    1CHOL    C130527   2.456  15.537   4.430  0.3644  0.1174  0.0285
    1CHOL    C230528   2.464  15.291   4.749  0.1393  0.2205 -0.0644
    1CHOL   ROH30529  17.242  10.002   3.248 -0.1029 -0.0369  0.1142
    1CHOL    R130530  17.281   9.978   3.528 -0.1740 -0.1112  0.1192
    1CHOL    R230531  17.465  10.132   3.666  0.0529 -0.3952  0.1527
    1CHOL    R330532  17.249  10.195   3.818  0.1217 -0.0683  0.1208
    1CHOL    R430533  17.476  10.216   4.001  0.1159 -0.4616  0.1667
    1CHOL    R530534  17.296  10.099   4.032 -0.0794 -0.1749  0.1146
    1CHOL    C130535  17.280  10.325   4.339  0.2172 -0.1933  0.1451
    1CHOL    C230536  17.240  10.390   4.684  0.0546  0.4368  0.3739
    1CHOL   ROH30537   3.074  19.390   3.411  0.0943  0.0949  0.2160
    1CHOL    R130538   2.964  19.312   3.660  0.1036  0.2741  0.2766
    1CHOL    R230539   2.853  19.492   3.837 -0.2907  0.3532 -0.0467
    1CHOL    R330540   2.638  19.326   3.822 -0.0094 -0.0388  0.0894
    1CHOL    R430541   2.603  19.470   4.075 -0.5165  0.5231 -0.2620
    1CHOL    R530542   2.603  19.254   4.047 -0.1311  0.4344  0.2385
    1CHOL    C130543   2.256  19.301   4.199 -0.3839  0.2542 -0.2595
    1CHOL    C230544   2.183  19.290   4.527  0.0514  0.2208  0.0406
    1CHOL   ROH30545   1.503  26.927   4.459 -0.1568  0.2514  0.0391
    1CHOL    R130546   1.421  26.900   4.189 -0.1133  0.1271  0.0373
    1CHOL    R230547   1.312  26.667   4.090 -0.0634  0.0669  0.1161
    1CHOL    R330548   1.110  26.832   4.013 -0.0772  0.0055  0.0212
    1CHOL    R430549   1.073  26.588   3.854  0.0085 -0.0422  0.0796
    1CHOL    R530550   1.088  26.792   3.778 -0.0137 -0.0621  0.0280
    1CHOL    C130551   0.744  26.697   3.644  0.0374 -0.1633 -0.0308
    1CHOL    C230552   0.446  26.877   3.546 -0.0185 -0.2163  0.0556
    1CHOL   ROH30553   4.829  13.085   3.020 -0.0850  0.2483 -0.3054
    1CHOL    R130554   4.813  13.136   3.298 -0.0816  0.0715 -0.2723
    1CHOL    R230555   4.988  13.306   3.428  0.0097 -0.1223 -0.1403
    1CHOL    R330556   4.759  13.426   3.511  0.0746 -0.0360 -0.0823
    1CHOL    R430557   4.957  13.496   3.715  0.1123 -0.2532 -0.0403
    1CHOL    R530558   4.763  13.404   3.750  0.0588 -0.1632 -0.0924
    1CHOL    C130559   4.724  13.720   3.960  0.2330 -0.2483  0.0724
    1CHOL    C230560   4.826  13.905   4.301 -0.1847  0.1385 -0.0114
    1CHOL   ROH30561  29.270   6.877   5.113 -0.0224  0.0239  0.0011
    1CHOL    R130562  29.037   6.844   4.955 -0.0677  0.0457  0.0652
    1CHOL    R230563  28.794   6.958   5.024  0.0198  0.2513  0.0154
    1CHOL    R330564  28.809   7.062   4.773  0.0362  0.0438 -0.0727
    1CHOL    R430565  28.523   7.033   4.824  0.0138  0.3040  0.0423
    1CHOL    R530566  28.632   6.954   4.653 -0.0889  0.0791  0.0652
    1CHOL    C130567  28.379   7.174   4.472  0.0254  0.1399 -0.0247
    1CHOL    C230568  28.094   7.178   4.366  0.3455 -0.2642 -0.2746
    1CHOL   ROH30569  20.020  18.924   5.511  0.0020 -0.3936  0.0488
    1CHOL    R130570  20.058  19.035   5.253 -0.2394 -0.1204  0.1256
    1CHOL    R230571  20.259  18.950   5.083 -0.0982  0.3827  0.0286
    1CHOL    R330572  20.052  18.913   4.910 -0.0595  0.1278  0.0315
    1CHOL    R430573  20.293  18.865   4.749 -0.0136  0.0558  0.1158
    1CHOL    R530574  20.131  19.004   4.703 -0.0618 -0.0503 -0.0507
    1CHOL    C130575  20.118  18.782   4.393  0.0717 -0.3741  0.1694
    1CHOL    C230576  20.076  18.495   4.103  0.1565  0.2135 -0.0003
    1CHOL   ROH30577  24.732  14.285   3.364 -0.0494 -0.3921 -0.0575
    1CHOL    R130578  24.807  14.395   3.614  0.1350 -0.2626 -0.1670
    1CHOL    R230579  24.628  14.427   3.822  0.1845  0.2349 -0.1867
    1CHOL    R330580  24.813  14.284   3.961 -0.0403  0.0650 -0.0556
    1CHOL    R430581  24.643  14.406   4.167  0.0360  0.3676 -0.1709
    1CHOL    R530582  24.860  14.419   4.153  0.0587  0.0916 -0.1004
    1CHOL    C130583  24.826  14.259   4.498 -0.2615  0.2854 -0.0386
    1CHOL    C230584  24.873  14.406   4.946 -0.0114  0.0660 -0.1989
    1CHOL   ROH30585  16.962  14.517   3.068  0.1672 -0.0588  0.0883
    1CHOL    R130586  17.157  14.645   3.228  0.0342  0.2687 -0.0014
    1CHOL    R230587  17.137  14.910   3.304 -0.4398  0.2114  0.1106
    1CHOL    R330588  17.167  14.807   3.554 -0.0627  0.1648  0.0532
    1CHOL    R430589  17.238  15.090   3.581 -0.3439  0.2340  0.0617
    1CHOL    R530590  17.359  14.919   3.642 -0.0901  0.3466 -0.1154
    1CHOL    C130591  17.325  15.098   3.977  0.0660  0.2034 -0.0206
    1CHOL    C230592  17.551  15.413   4.073 -0.1400  0.1410  0.3255
    1CHOL   ROH30593  26.911   6.513   6.250  0.1491 -0.1301 -0.1107
    1CHOL    R130594  26.931   6.584   5.977  0.2419 -0.2227 -0.1275
    1CHOL    R230595  26.912   6.399   5.773  0.0119 -0.2497 -0.0752
    1CHOL    R330596  26.717   6.566   5.682  0.2207 -0.0265 -0.1281
    1CHOL    R430597  26.830   6.445   5.440 -0.0973 -0.4687 -0.0814
    1CHOL    R530598  26.807   6.658   5.480  0.2650 -0.3757 -0.2813
    1CHOL    C130599  26.600   6.628   5.161  0.0349 -0.3867 -0.1346
    1CHOL    C230600  26.418   6.259   5.068  0.1386  0.0106  0.0492
    1CHOL   ROH30601  15.736  28.967   6.446  0.1346  0.0578  0.0198
    1CHOL    R130602  15.734  28.922   6.166 -0.0470  0.0119  0.0276
    1CHOL    R230603  15.506  28.953   6.013 -0.1203  0.1012  0.1522
    1CHOL    R330604  15.665  29.119   5.868 -0.1174 -0.0031  0.0338
    1CHOL    R430605  15.441  29.056   5.690 -0.2511  0.0777  0.1702
    1CHOL    R530606  15.653  29.033   5.645 -0.2866 -0.0362  0.0539
    1CHOL    C130607  15.553  29.273   5.366 -0.3245 -0.0339  0.0695
    1CHOL    C230608  15.212  29.326   5.307 -0.0587  0.2400 -0.3492
    1CHOL   ROH30609  21.675  19.548   2.405  0.0993 -0.0916  0.1016
    1CHOL    R130610  21.478  19.510   2.605 -0.0031  0.0994  0.0392
    1CHOL    R230611  21.538  19.413   2.857 -0.1898 -0.0559  0.0263
    1CHOL    R330612  21.412  19.640   2.938  0.0776  0.0853  0.0609
    1CHOL    R430613  21.489  19.504   3.187 -0.1097 -0.0640  0.0407
    1CHOL    R530614  21.289  19.572   3.133 -0.0245  0.1929  0.0353
    1CHOL    C130615  21.342  19.770   3.455  0.1882  0.0640  0.0815
    1CHOL    C230616  21.564  19.869   3.655 -0.3573 -0.0372 -0.0022
    1CHOL   ROH30617   1.718   7.109   5.979 -0.1647  0.0445  0.1074
    1CHOL    R130618   1.618   7.101   5.714 -0.0374  0.0221  0.0590
    1CHOL    R230619   1.708   6.920   5.526  0.1009  0.0491  0.0976
    1CHOL    R330620   1.444   6.859   5.505  0.1265 -0.0214 -0.0279
    1CHOL    R430621   1.556   6.795   5.242  0.2753 -0.0291  0.0372
    1CHOL    R530622   1.386   6.925   5.282  0.2216 -0.0673 -0.0664
    1CHOL    C130623   1.220   6.666   5.057  0.4008 -0.1408 -0.1158
    1CHOL    C230624   0.899   6.666   4.921 -0.1509 -0.2853 -0.0111
    1CHOL   ROH30625  25.448  13.184   3.073  0.1247  0.2354 -0.0749
    1CHOL    R130626  25.430  13.126   3.349  0.0340  0.1455 -0.0991
    1CHOL    R230627  25.639  13.015   3.492 -0.0181  0.0864 -0.0699
    1CHOL    R330628  25.601  13.231   3.653 -0.0553  0.0354 -0.0096
    1CHOL    R430629  25.702  13.021   3.832  0.0928  0.0357 -0.0890
    1CHOL    R530630  25.520  13.138   3.858  0.0512 -0.0457 -0.0023
    1CHOL    C130631  25.703  13.227   4.181  0.1224 -0.0417 -0.0434
    1CHOL    C230632  25.854  13.352   4.499 -0.0021  0.2008 -0.0756
    1CHOL   ROH30633  19.470  15.167   2.873  0.0180 -0.1319  0.0670
    1CHOL    R130634  19.517  15.388   3.044 -0.0395 -0.1226  0.0737
    1CHOL    R230635  19.606  15.358   3.304 -0.0675 -0.1076  0.0931
    1CHOL    R330636  19.802  15.528   3.222 -0.0843 -0.0828  0.1096
    1CHOL    R430637  19.808  15.545   3.514 -0.1050 -0.0741  0.0976
    1CHOL    R530638  19.791  15.711   3.375 -0.1146 -0.0840  0.0996
    1CHOL    C130639  20.109  15.812   3.558 -0.1425 -0.0315  0.1157
    1CHOL    C230640  20.369  15.930   3.722 -0.0975 -0.2345 -0.1118
    1CHOL   ROH30641  15.125   8.890   3.737  0.1198 -0.3546  0.0594
    1CHOL    R130642  14.954   8.877   3.962  0.0866 -0.3862  0.0327
    1CHOL    R230643  15.011   8.724   4.184  0.2727 -0.0778  0.2046
    1CHOL    R330644  14.975   8.958   4.316 -0.1143  0.0089 -0.0400
    1CHOL    R430645  14.901   8.751   4.510  0.4293  0.0616  0.2468
    1CHOL    R530646  14.779   8.922   4.449  0.0389 -0.2435  0.1253
    1CHOL    C130647  14.803   8.987   4.824  0.1573  0.2242  0.0418
    1CHOL    C230648  14.508   9.260   4.992  0.1094 -0.2249 -0.1742
    1CHOL   ROH30649  22.169  21.865   5.788 -0.0797 -0.0094 -0.0346
    1CHOL    R130650  22.358  21.769   5.601 -0.0984  0.0256 -0.0707
    1CHOL    R230651  22.488  21.527   5.630 -0.1210  0.0074 -0.1452
    1CHOL    R330652  22.390  21.481   5.381 -0.1347  0.0844 -0.1550
    1CHOL    R430653  22.664  21.376   5.374 -0.1638 -0.0044 -0.1683
    1CHOL    R530654  22.577  21.520   5.236 -0.1171  0.0513 -0.1450
    1CHOL    C130655  22.674  21.244   4.991 -0.2016  0.0610 -0.1910
    1CHOL    C230656  22.872  20.901   5.042  0.0376 -0.1323  0.0257
    1CHOL   ROH30657  29.054  12.625   4.910  0.2764  0.1765 -0.3162
    1CHOL    R130658  28.922  12.871   4.866  0.0743  0.0939 -0.1868
    1CHOL    R230659  28.663  12.918   4.951  0.0931 -0.0987 -0.0026
    1CHOL    R330660  28.776  13.133   5.073  0.0309 -0.0436 -0.0428
    1CHOL    R430661  28.501  13.217   5.013  0.0694 -0.0653 -0.2188
    1CHOL    R530662  28.684  13.322   4.957  0.0953 -0.0947 -0.1719
    1CHOL    C130663  28.513  13.593   5.163 -0.0026  0.0058 -0.3825
    1CHOL    C230664  28.344  13.576   5.482  0.3053  0.0498 -0.1629
    1CHOL   ROH30665  14.631   7.355   7.440  0.0275 -0.0568  0.0650
    1CHOL    R130666  14.469   7.176   7.292  0.0360  0.0113 -0.0278
    1CHOL    R230667  14.246   7.259   7.151  0.0521  0.0793 -0.0172
    1CHOL    R330668  14.371   7.135   6.944  0.0710  0.1631 -0.0558
    1CHOL    R430669  14.126   7.247   6.828  0.0345  0.1212 -0.0120
    1CHOL    R530670  14.193   7.039   6.816  0.0906  0.1440 -0.0660
    1CHOL    C130671  14.173   7.123   6.445  0.0419  0.2242 -0.0453
    1CHOL    C230672  13.851   7.113   6.304  0.0777 -0.1311 -0.1498
    1CHOL   ROH30673   7.029   7.574   3.502  0.1882  0.0450  0.0412
    1CHOL    R130674   6.997   7.426   3.741  0.0917  0.0684  0.0432
    1CHOL    R230675   7.126   7.185   3.785 -0.0161  0.0155  0.0717
    1CHOL    R330676   7.212   7.310   4.011  0.0050 -0.0114  0.0786
    1CHOL    R430677   7.259   7.025   4.060  0.1783 -0.0034 -0.0316
    1CHOL    R530678   7.148   7.162   4.188  0.1535 -0.1041  0.0566
    1CHOL    C130679   7.418   7.048   4.433  0.3114 -0.0396 -0.0853
    1CHOL    C230680   7.640   6.808   4.652 -0.0366  0.3947  0.2961
    1CHOL   ROH30681  22.438   8.923   6.595 -0.0415 -0.2666  0.0109
    1CHOL    R130682  22.411   8.792   6.346 -0.1408  0.0716 -0.1627
    1CHOL    R230683  22.379   8.929   6.108  0.3728  0.4250 -0.0456
    1CHOL    R330684  22.594   8.781   6.031  0.1063  0.0091 -0.0195
    1CHOL    R430685  22.488   8.894   5.782  0.4521  0.3657 -0.0130
    1CHOL    R530686  22.527   8.683   5.823 -0.0069  0.2538 -0.1011
    1CHOL    C130687  22.753   8.734   5.520  0.2481 -0.0591  0.0306
    1CHOL    C230688  22.524   8.455   5.290 -0.0472 -0.1128 -0.1447
    1CHOL   ROH30689  23.399  27.884   6.269  0.0706  0.0480 -0.0981
    1CHOL    R130690  23.352  28.130   6.137 -0.0609  0.0609 -0.0286
    1CHOL    R230691  23.431  28.177   5.877  0.0504  0.2287  0.0340
    1CHOL    R330692  23.170  28.241   5.842  0.0131  0.0207 -0.0896
    1CHOL    R430693  23.314  28.405   5.646 -0.0057  0.2713  0.1042
    1CHOL    R530694  23.172  28.476   5.797 -0.1645  0.0536  0.0611
    1CHOL    C130695  22.999  28.599   5.480 -0.0737  0.1009  0.0291
    1CHOL    C230696  22.852  28.975   5.454  0.1340 -0.1184  0.0622
    1CHOL   ROH30697  20.786  24.468   2.774  0.0516 -0.0226  0.1036
    1CHOL    R130698  20.679  24.536   3.026  0.0288 -0.0582  0.1032
    1CHOL    R230699  20.407  24.547   3.074  0.0241  0.0555  0.0464
    1CHOL    R330700  20.468  24.375   3.276 -0.1034 -0.0432  0.0028
    1CHOL    R430701  20.185  24.440   3.317 -0.0615  0.1522  0.0116
    1CHOL    R530702  20.344  24.458   3.464 -0.0497 -0.0017  0.0215
    1CHOL    C130703  20.113  24.216   3.647 -0.2312  0.1160 -0.0496
    1CHOL    C230704  20.153  24.267   4.046 -0.1125 -0.1691 -0.1925
    1CHOL   ROH30705  24.359  16.742   2.916  0.1983 -0.1396  0.0639
    1CHOL    R130706  24.175  16.806   3.121  0.1026 -0.0679 -0.0404
    1CHOL    R230707  23.926  16.687   3.141  0.0781 -0.0561 -0.1181
    1CHOL    R330708  24.010  16.628   3.392 -0.0270  0.0174 -0.0676
    1CHOL    R430709  23.719  16.646   3.415 -0.0136  0.0389 -0.1740
    1CHOL    R530710  23.864  16.753   3.535 -0.0635  0.0603 -0.1574
    1CHOL    C130711  23.678  16.567   3.810 -0.1661  0.1636 -0.1592
    1CHOL    C230712  23.641  16.597   4.221  0.1761  0.3106  0.4514
    1CHOL   ROH30713  27.457   6.535   6.332 -0.3672  0.1501  0.0566
    1CHOL    R130714  27.357   6.615   6.080 -0.0831  0.1734 -0.0527
    1CHOL    R230715  27.522   6.684   5.869  0.1617 -0.1045  0.0416
    1CHOL    R330716  27.378   6.495   5.737  0.0342  0.0135  0.0091
    1CHOL    R430717  27.443   6.695   5.533  0.1362  0.0252  0.0511
    1CHOL    R530718  27.244   6.619   5.582  0.0940  0.1328  0.0515
    1CHOL    C130719  27.262   6.524   5.213  0.0013  0.2115  0.0262
    1CHOL    C230720  27.101   6.829   4.960  0.1979  0.0982 -0.0546
    1CHOL   ROH30721  14.601   7.610   7.006  0.0527  0.0956 -0.0222
    1CHOL    R130722  14.610   7.467   6.762  0.1601  0.0999 -0.0221
    1CHOL    R230723  14.410   7.484   6.572  0.0779 -0.1548  0.0343
    1CHOL    R330724  14.617   7.549   6.408 -0.0488  0.1037 -0.0259
    1CHOL    R430725  14.421   7.418   6.233  0.0444 -0.1089  0.0252
    1CHOL    R530726  14.631   7.365   6.255  0.1161  0.1340 -0.0478
    1CHOL    C130727  14.621   7.441   5.881 -0.0940  0.1605 -0.0366
    1CHOL    C230728  14.332   7.483   5.519  0.0954 -0.2702 -0.1709
    1CHOL   ROH30729  21.781  16.623   5.593  0.1056 -0.1055  0.0945
    1CHOL    R130730  21.756  16.497   5.340 -0.0086  0.0671  0.0202
    1CHOL    R230731  21.661  16.630   5.117  0.2438  0.3259  0.0730
    1CHOL    R330732  21.894  16.544   5.007  0.1492  0.0452  0.0783
    1CHOL    R430733  21.736  16.640   4.780  0.2311  0.2051  0.0644
    1CHOL    R530734  21.829  16.444   4.799  0.0154  0.0891  0.0880
    1CHOL    C130735  21.999  16.566   4.480  0.1348 -0.1287  0.0643
    1CHOL    C230736  21.963  16.337   4.132  0.1722 -0.1285 -0.2604
    1CHOL   ROH30737  18.656  15.159   5.883 -0.2312 -0.2168 -0.0595
    1CHOL    R130738  18.681  15.092   5.609 -0.0126 -0.3784 -0.0017
    1CHOL    R230739  18.823  15.248   5.431 -0.2317 -0.2509 -0.0584
    1CHOL    R330740  18.952  15.014   5.380  0.2179 -0.0616  0.1523
    1CHOL    R430741  18.982  15.171   5.134 -0.1851 -0.2463 -0.0360
    1CHOL    R530742  18.904  14.968   5.149  0.2163 -0.4019  0.2099
    1CHOL    C130743  19.197  14.908   4.913  0.2638 -0.0660  0.1747
    1CHOL    C230744  19.159  14.719   4.451 -0.0274  0.3271 -0.1851
    1CHOL   ROH30745  14.721  10.061   3.252 -0.1260  0.1100 -0.0973
    1CHOL    R130746  14.516  10.171   3.413 -0.1364 -0.0550  0.0058
    1CHOL    R230747  14.457  10.076   3.666  0.1521 -0.0226  0.0906
    1CHOL    R330748  14.493  10.335   3.737 -0.0840  0.0498 -0.0436
    1CHOL    R430749  14.347  10.216   3.962  0.0405  0.0269  0.0256
    1CHOL    R530750  14.291  10.395   3.850 -0.1328 -0.0805 -0.0619
    1CHOL    C130751  14.318  10.542   4.201 -0.2460  0.1236 -0.1382
    1CHOL    C230752  14.532  10.417   4.521 -0.2702 -0.2408 -0.1740
    1CHOL   ROH30753  17.425   6.566   7.226 -0.0391  0.1004 -0.1277
    1CHOL    R130754  17.468   6.413   6.992 -0.0111  0.1808 -0.1774
    1CHOL    R230755  17.261   6.318   6.837 -0.0032  0.0783 -0.1385
    1CHOL    R330756  17.395   6.445   6.637 -0.1459  0.2186 -0.1446
    1CHOL    R430757  17.221   6.252   6.500  0.3664 -0.2670 -0.1210
    1CHOL    R530758  17.437   6.273   6.476  0.3394  0.1846  0.0111
    1CHOL    C130759  17.324   6.333   6.116  0.4475 -0.3362 -0.1166
    1CHOL    C230760  16.991   6.323   5.981 -0.0338  0.2334 -0.1085
    1CHOL   ROH30761  26.698  19.082   3.386  0.0023 -0.0191 -0.1532
    1CHOL    R130762  26.439  19.116   3.494  0.0283 -0.0237 -0.0900
    1CHOL    R230763  26.356  18.988   3.725  0.1092  0.0251 -0.0369
    1CHOL    R330764  26.296  19.241   3.804  0.0971  0.0374 -0.0818
    1CHOL    R430765  26.142  19.069   3.984  0.0213  0.0587 -0.1188
    1CHOL    R530766  26.065  19.232   3.863  0.0732  0.0546 -0.1635
    1CHOL    C130767  25.962  19.354   4.210 -0.0414  0.0896 -0.2086
    1CHOL    C230768  25.942  19.523   4.694 -0.0769 -0.0488 -0.1146
    1CHOL   ROH30769  29.202  10.943   2.898  0.0520  0.0705  0.0536
    1CHOL    R130770  29.127  10.892   3.166  0.0710  0.1232  0.0685
    1CHOL    R230771  29.235  11.031   3.380 -0.0258  0.2712  0.0213
    1CHOL    R330772  28.975  11.081   3.438 -0.0608  0.1292 -0.0082
    1CHOL    R430773  29.111  11.085   3.697 -0.0708  0.3146 -0.0034
    1CHOL    R530774  28.936  10.966   3.644  0.0051  0.1828  0.0354
    1CHOL    C130775  28.793  11.164   3.937 -0.1303  0.2067 -0.0454
    1CHOL    C230776  28.799  11.348   4.315  0.1725  0.0410  0.2611
    1CHOL   ROH30777  21.703   5.990   4.129  0.0611  0.2585 -0.0557
    1CHOL    R130778  21.714   5.866   4.383  0.1330  0.1769 -0.0983
    1CHOL    R230779  21.903   5.933   4.573  0.1021  0.2115 -0.0813
    1CHOL    R330780  21.685   5.971   4.730  0.0861  0.0419 -0.0601
    1CHOL    R430781  21.914   5.995   4.913  0.0980  0.3095 -0.0990
    1CHOL    R530782  21.741   5.864   4.937  0.2246  0.1466 -0.0397
    1CHOL    C130783  21.715   6.068   5.258  0.0807  0.2073 -0.0894
    1CHOL    C230784  21.917   5.941   5.535  0.0313  0.0659 -0.0634
    1CHOL   ROH30785  22.155  28.886   6.175 -0.1739 -0.0105 -0.1081
    1CHOL    R130786  22.093  28.988   5.919 -0.1275  0.3787  0.0278
    1CHOL    R230787  22.149  29.249   5.845  0.4116  0.3436  0.2416
    1CHOL    R330788  22.278  29.128   5.638  0.0038  0.2326  0.0423
    1CHOL    R430789  22.264  29.409   5.561  0.1361  0.2369  0.0664
    1CHOL    R530790  22.197  29.239   5.443 -0.1864  0.2988  0.1616
    1CHOL    C130791  22.452  29.389   5.202 -0.4075  0.0706 -0.2226
    1CHOL    C230792  22.397  29.813   5.084  0.1847 -0.1164  0.1366
    1CHOL   ROH30793  20.505  17.994   2.604 -0.0304 -0.0345  0.0063
    1CHOL    R130794  20.600  17.850   2.828 -0.0494 -0.1353 -0.0507
    1CHOL    R230795  20.490  17.877   3.080  0.1908  0.0582  0.0353
    1CHOL    R330796  20.464  17.607   3.063 -0.2026  0.0854  0.0948
    1CHOL    R430797  20.479  17.662   3.350  0.3219  0.1040  0.0780
    1CHOL    R530798  20.604  17.522   3.238 -0.0345 -0.0815 -0.1107
    1CHOL    C130799  20.449  17.283   3.491  0.0290  0.1561  0.1587
    1CHOL    C230800  20.386  17.013   3.829  0.1855  0.1971 -0.1175
    1CHOL   ROH30801   7.339  20.505   5.661  0.3606  0.1297  0.0364
    1CHOL    R130802   7.436  20.466   5.398  0.1692  0.0577 -0.0245
    1CHOL    R230803   7.316  20.291   5.220  0.0323  0.0173  0.1060
    1CHOL    R330804   7.308  20.510   5.059 -0.0733 -0.0240  0.0539
    1CHOL    R430805   7.304  20.281   4.875 -0.0954 -0.0717  0.1121
    1CHOL    R530806   7.443  20.450   4.871 -0.1312 -0.0433  0.0179
    1CHOL    C130807   7.290  20.481   4.523 -0.2689 -0.1622  0.0667
    1CHOL    C230808   7.239  20.321   4.197 -0.0534  0.2257  0.0973
    1CHOL   ROH30809  25.041  18.041   3.179  0.0506 -0.0352  0.2399
    1CHOL    R130810  24.784  18.018   3.296 -0.0391  0.1947  0.0959
    1CHOL    R230811  24.740  17.880   3.531 -0.3371  0.0063 -0.0624
    1CHOL    R330812  24.628  18.115   3.610 -0.0483  0.0868  0.1247
    1CHOL    R430813  24.573  17.929   3.830 -0.4899 -0.0983 -0.1300
    1CHOL    R530814  24.427  18.049   3.723 -0.2341  0.2481 -0.1042
    1CHOL    C130815  24.370  18.177   4.078 -0.3077 -0.0839  0.0063
    1CHOL    C230816  24.047  18.276   4.108 -0.0362 -0.0607  0.2142
    1CHOL   ROH30817  19.949  18.509   2.563 -0.1371  0.1156 -0.0918
    1CHOL    R130818  19.819  18.628   2.784 -0.1898 -0.0137 -0.0507
    1CHOL    R230819  19.725  18.481   2.999 -0.0148 -0.1167 -0.0349
    1CHOL    R330820  19.877  18.654   3.142 -0.1241  0.0044 -0.0645
    1CHOL    R430821  19.711  18.518   3.342 -0.1996  0.1185 -0.0656
    1CHOL    R530822  19.731  18.734   3.315 -0.2228  0.0976 -0.1965
    1CHOL    C130823  19.846  18.702   3.677 -0.4098  0.3691 -0.1113
    1CHOL    C230824  19.787  18.954   3.971  0.0521  0.1978 -0.1784
    1CHOL   ROH30825  16.592  25.931   2.524 -0.1650 -0.2568 -0.2301
    1CHOL    R130826  16.675  25.728   2.702 -0.0661 -0.0630 -0.0506
    1CHOL    R230827  16.632  25.742   2.974 -0.3209  0.0285 -0.0931
    1CHOL    R330828  16.516  25.499   2.935  0.0108 -0.1390 -0.0717
    1CHOL    R430829  16.562  25.515   3.225 -0.3208  0.1041 -0.0245
    1CHOL    R530830  16.627  25.355   3.091  0.0191  0.0920  0.1431
    1CHOL    C130831  16.413  25.154   3.335 -0.0097 -0.0088  0.0355
    1CHOL    C230832  16.718  24.949   3.523  0.0349  0.0767  0.1589
    1CHOL   ROH30833  27.835  24.543   3.344  0.0636 -0.1216  0.1574
    1CHOL    R130834  27.833  24.780   3.498  0.0017 -0.0183 -0.0025
    1CHOL    R230835  27.599  24.907   3.573 -0.0360 -0.1675  0.1089
    1CHOL    R330836  27.703  24.884   3.823  0.1983  0.0977  0.0434
    1CHOL    R430837  27.462  25.047   3.858 -0.0940 -0.3184  0.1578
    1CHOL    R530838  27.664  25.097   3.924 -0.1201  0.0731 -0.0037
    1CHOL    C130839  27.481  25.106   4.258  0.0924 -0.1574  0.1248
    1CHOL    C230840  27.411  25.164   4.614  0.0850  0.1588  0.1177
    1CHOL   ROH30841   6.084   2.794   3.587 -0.0574 -0.0014 -0.0299
    1CHOL    R130842   6.144   3.003   3.769  0.0247 -0.0359 -0.0166
    1CHOL    R230843   5.951   3.123   3.925  0.0597  0.0757 -0.0561
    1CHOL    R330844   6.118   3.056   4.129 -0.0213 -0.0238 -0.0220
    1CHOL    R430845   5.967   3.286   4.230  0.1260  0.0917 -0.0680
    1CHOL    R530846   6.184   3.266   4.224  0.1123 -0.0623 -0.0301
    1CHOL    C130847   6.133   3.317   4.598  0.0885  0.0075 -0.0429
    1CHOL    C230848   5.775   3.391   4.771  0.0738 -0.1012 -0.2821
    1CHOL   ROH30849  18.866   2.796   4.745  0.0045 -0.2316  0.0027
    1CHOL    R130850  18.794   2.843   5.014  0.0063 -0.1344 -0.0134
    1CHOL    R230851  18.706   2.642   5.182 -0.0024 -0.0716  0.0564
    1CHOL    R330852  18.907   2.731   5.342  0.0008 -0.0253  0.0266
    1CHOL    R430853  18.747   2.556   5.514  0.0374 -0.0278  0.0629
    1CHOL    R530854  18.804   2.762   5.556  0.0143 -0.0136  0.0328
    1CHOL    C130855  18.960   2.589   5.857  0.0638  0.0411  0.0388
    1CHOL    C230856  18.839   2.429   6.137  0.0971 -0.0705  0.2379
    1CHOL   ROH30857  20.799  22.473   5.285  0.1842 -0.2168 -0.0681
    1CHOL    R130858  20.773  22.450   5.004  0.1297 -0.1363 -0.0708
    1CHOL    R230859  20.989  22.399   4.839  0.0928 -0.1345 -0.1242
    1CHOL    R330860  20.834  22.193   4.754  0.0359 -0.0817 -0.1493
    1CHOL    R430861  21.045  22.216   4.552  0.0257 -0.1065 -0.1551
    1CHOL    R530862  20.830  22.215   4.516  0.0268 -0.0462 -0.1434
    1CHOL    C130863  20.932  21.914   4.305 -0.0667 -0.0405 -0.1966
    1CHOL    C230864  20.913  21.716   4.027 -0.1067  0.1165 -0.2163
    1CHOL   ROH30865   4.747  12.648   5.574 -0.1361 -0.0896 -0.0406
    1CHOL    R130866   4.858  12.582   5.322  0.0043 -0.0304  0.0052
    1CHOL    R230867   4.718  12.613   5.085  0.0389 -0.2269 -0.0374
    1CHOL    R330868   4.936  12.758   5.014 -0.0893 -0.0164 -0.0123
    1CHOL    R430869   4.819  12.671   4.760  0.0374 -0.1717 -0.0287
    1CHOL    R530870   5.025  12.643   4.824  0.0604  0.0410  0.0166
    1CHOL    C130871   5.082  12.841   4.503 -0.0837  0.0582  0.0000
    1CHOL    C230872   5.454  12.879   4.302 -0.2952 -0.0056  0.1424
    1CHOL   ROH30873  12.754   4.971   4.669  0.0118  0.0519 -0.1927
    1CHOL    R130874  12.617   5.013   4.913  0.0407 -0.0717 -0.1542
    1CHOL    R230875  12.710   4.918   5.155  0.1585 -0.0479 -0.1891
    1CHOL    R330876  12.685   5.178   5.230  0.0093 -0.0736 -0.1465
    1CHOL    R430877  12.690   5.028   5.482  0.1899 -0.1043 -0.1682
    1CHOL    R530878  12.538   5.171   5.419  0.0739 -0.1964 -0.1001
    1CHOL    C130879  12.655   5.336   5.743  0.0682 -0.1612 -0.1159
    1CHOL    C230880  12.574   5.397   6.172 -0.0317  0.1959  0.1009
    1CHOL   ROH30881   9.713   7.303   5.182  0.1736  0.2970 -0.3657
    1CHOL    R130882   9.653   7.347   4.909  0.0218  0.1328 -0.3612
    1CHOL    R230883   9.419   7.259   4.792 -0.1095  0.1829 -0.1457
    1CHOL    R330884   9.395   7.520   4.719 -0.0009  0.1462 -0.3172
    1CHOL    R430885   9.182   7.382   4.573 -0.1521  0.1607 -0.1116
    1CHOL    R530886   9.335   7.512   4.488 -0.1230  0.0165 -0.2815
    1CHOL    C130887   9.021   7.699   4.377 -0.0750  0.1133 -0.2528
    1CHOL    C230888   8.777   8.004   4.479  0.1498 -0.2284 -0.0416
    1CHOL   ROH30889  22.147   0.174   6.806 -0.0552 -0.1181 -0.0670
    1CHOL    R130890  22.203   0.367   6.607 -0.1003  0.0591  0.0890
    1CHOL    R230891  22.270   0.299   6.347  0.2452  0.2735  0.1092
    1CHOL    R330892  22.063   0.465   6.286  0.0889  0.0434  0.0021
    1CHOL    R430893  22.224   0.454   6.042  0.2422  0.2650  0.1055
    1CHOL    R530894  22.160   0.634   6.147 -0.0295  0.1753  0.0864
    1CHOL    C130895  22.003   0.700   5.806  0.0940  0.0441  0.0029
    1CHOL    C230896  22.125   0.863   5.604  0.1496  0.2845  0.2047
    1CHOL   ROH30897  16.310  19.953   4.635 -0.1594  0.0870 -0.0095
    1CHOL    R130898  16.334  20.150   4.433  0.0690  0.1119  0.0382
    1CHOL    R230899  16.541  20.333   4.428  0.2799 -0.1136  0.0907
    1CHOL    R330900  16.577  20.237   4.176  0.1801 -0.0992  0.0711
    1CHOL    R430901  16.738  20.482   4.186  0.2819 -0.1740  0.0556
    1CHOL    R530902  16.585  20.433   4.038  0.2294 -0.0925  0.0893
    1CHOL    C130903  16.887  20.478   3.808  0.1892 -0.1959  0.0168
    1CHOL    C230904  17.123  20.593   3.721  0.0263 -0.0091  0.2229
    1CHOL   ROH30905   8.392  14.854   3.759 -0.3157 -0.1184  0.1076
    1CHOL    R130906   8.460  14.844   4.034 -0.2731  0.0062  0.1021
    1CHOL    R230907   8.288  14.928   4.233 -0.3994 -0.2692  0.1126
    1CHOL    R330908   8.332  14.678   4.331  0.0241 -0.1973  0.1215
    1CHOL    R430909   8.301  14.846   4.569 -0.2794 -0.2381  0.1160
    1CHOL    R530910   8.467  14.713   4.525 -0.0436  0.0424  0.1294
    1CHOL    C130911   8.350  14.564   4.856  0.1880 -0.1526  0.1263
    1CHOL    C230912   8.238  14.566   5.255 -0.0704 -0.1329  0.0267
    1CHOL   ROH30913   8.518   2.417   5.913 -0.0501 -0.0286  0.0629
    1CHOL    R130914   8.389   2.186   5.813 -0.0135 -0.0034 -0.0417
    1CHOL    R230915   8.123   2.183   5.741 -0.0111 -0.0134 -0.0369
    1CHOL    R330916   8.221   2.089   5.505 -0.0036  0.1083 -0.0841
    1CHOL    R430917   7.928   2.075   5.476 -0.0108 -0.1928  0.0346
    1CHOL    R530918   8.070   1.912   5.446  0.1521 -0.0469 -0.0356
    1CHOL    C130919   7.906   1.923   5.101 -0.0036 -0.1830  0.0319
    1CHOL    C230920   7.615   2.198   4.824 -0.0367  0.0829  0.0530
    1CHOL   ROH30921  29.349  20.728   6.207 -0.1800  0.2150 -0.0552
    1CHOL    R130922  29.186  20.784   5.982 -0.0976  0.1257 -0.1387
    1CHOL    R230923  29.286  20.791   5.724 -0.0080 -0.0109 -0.1129
    1CHOL    R330924  29.088  20.611   5.677 -0.0121 -0.0119 -0.0876
    1CHOL    R430925  29.129  20.745   5.420 -0.1079  0.0389 -0.0691
    1CHOL    R530926  28.940  20.723   5.526 -0.0686  0.0057 -0.0148
    1CHOL    C130927  28.852  20.548   5.199 -0.1696  0.0667 -0.0199
    1CHOL    C230928  28.983  20.683   4.787 -0.0842 -0.0659  0.1870
    1CHOL   ROH30929  24.882  26.776   5.738  0.0536  0.0514  0.0607
    1CHOL    R130930  24.727  26.701   5.513  0.0712  0.0625  0.0451
    1CHOL    R230931  24.822  26.533   5.315  0.0779  0.0538  0.0576
    1CHOL    R330932  24.597  26.392   5.372  0.0598  0.0722  0.0330
    1CHOL    R430933  24.692  26.282   5.117 -0.0218  0.1905 -0.0523
    1CHOL    R530934  24.492  26.359   5.159  0.0033  0.2127  0.0369
    1CHOL    C130935  24.404  26.003   5.055 -0.0967  0.2873 -0.1393
    1CHOL    C230936  24.125  25.883   4.860  0.0922 -0.3026  0.0335
    1CHOL   ROH30937  28.035   9.779   5.817  0.0330 -0.1655  0.0390
    1CHOL    R130938  28.022   9.886   5.555  0.0545 -0.0467  0.0858
    1CHOL    R230939  27.984   9.729   5.332  0.0242  0.0593  0.0147
    1CHOL    R330940  27.777   9.899   5.286  0.0574  0.1199  0.0905
    1CHOL    R430941  27.779   9.721   5.054 -0.1781  0.0208  0.1631
    1CHOL    R530942  27.783   9.939   5.050 -0.0955  0.0175  0.0684
    1CHOL    C130943  27.465   9.876   4.849 -0.2647  0.0553  0.3206
    1CHOL    C230944  27.195   9.936   4.719  0.1531 -0.0310 -0.0416
    1CHOL   ROH30945  14.824  16.426   2.928  0.1134  0.0351 -0.0443
    1CHOL    R130946  14.918  16.469   3.192  0.0948  0.1369 -0.0534
    1CHOL    R230947  14.926  16.268   3.381 -0.1165  0.2568  0.0902
    1CHOL    R330948  15.187  16.340   3.400 -0.0573  0.0476  0.0884
    1CHOL    R430949  15.132  16.191   3.647 -0.2617  0.3803  0.2414
    1CHOL    R530950  15.218  16.391   3.632 -0.0818  0.2874  0.0380
    1CHOL    C130951  15.498  16.213   3.820 -0.2906  0.2559  0.3277
    1CHOL    C230952  15.744  15.987   4.004 -0.0141 -0.3499 -0.0380
    1CHOL   ROH30953  16.497  22.706   4.628  0.2468 -0.0477 -0.0533
    1CHOL    R130954  16.425  22.964   4.537 -0.0113 -0.0811  0.0488
    1CHOL    R230955  16.584  23.110   4.364 -0.0682  0.2173  0.2461
    1CHOL    R330956  16.356  23.122   4.216  0.0183  0.0204  0.0911
    1CHOL    R430957  16.516  23.349   4.123 -0.0641  0.0943  0.1207
    1CHOL    R530958  16.310  23.356   4.195 -0.1190 -0.0134 -0.0159
    1CHOL    C130959  16.262  23.499   3.844  0.0194 -0.1623 -0.0979
    1CHOL    C230960  16.378  23.806   3.690 -0.1312 -0.0716  0.2259
    1CHOL   ROH30961  17.792   2.499   4.674 -0.0216  0.1055 -0.1613
    1CHOL    R130962  17.784   2.603   4.938 -0.1266  0.0344 -0.1355
    1CHOL    R230963  17.569   2.564   5.107 -0.0901 -0.2250 -0.1432
    1CHOL    R330964  17.759   2.468   5.275  0.0100 -0.0749 -0.1687
    1CHOL    R430965  17.547   2.566   5.451 -0.0446 -0.2464 -0.1403
    1CHOL    R530966  17.758   2.620   5.460 -0.0864 -0.0778 -0.1674
    1CHOL    C130967  17.713   2.476   5.810  0.0757 -0.1179 -0.1623
    1CHOL    C230968  17.710   2.375   6.183  0.0977 -0.0390  0.0947
    1CHOL   ROH30969  27.423   3.258   6.345 -0.0659  0.1117 -0.0167
    1CHOL    R130970  27.391   3.218   6.066 -0.0461  0.0766 -0.0141
    1CHOL    R230971  27.436   3.418   5.881 -0.1724  0.0975 -0.0269
    1CHOL    R330972  27.602   3.233   5.770 -0.0584  0.1926 -0.0161
    1CHOL    R430973  27.539   3.419   5.551 -0.4642 -0.0710 -0.1225
    1CHOL    R530974  27.516   3.202   5.549 -0.2184 -0.0994  0.0863
    1CHOL    C130975  27.755   3.246   5.255 -0.5270 -0.0799 -0.1680
    1CHOL    C230976  27.909   3.626   5.165  0.2082 -0.0206 -0.1141
    1CHOL   ROH30977  18.631  11.140   6.662 -0.0885 -0.3069  0.0766
    1CHOL    R130978  18.706  10.984   6.438 -0.1995 -0.2595  0.0054
    1CHOL    R230979  18.594  11.019   6.188 -0.1634 -0.0541  0.0166
    1CHOL    R330980  18.854  11.044   6.111 -0.1392 -0.2172  0.0402
    1CHOL    R430981  18.702  11.050   5.860 -0.1210 -0.0371  0.0320
    1CHOL    R530982  18.869  10.918   5.908 -0.2170 -0.1705  0.0052
    1CHOL    C130983  19.008  11.092   5.598 -0.0735 -0.1802  0.0630
    1CHOL    C230984  19.113  10.864   5.353  0.1351 -0.2139 -0.1149
    1CHOL   ROH30985  10.828  10.258   6.287 -0.0681 -0.2107  0.0214
    1CHOL    R130986  11.002  10.231   6.066  0.0168 -0.0472  0.0662
    1CHOL    R230987  10.922  10.118   5.827  0.1697 -0.0736  0.0251
    1CHOL    R330988  11.014  10.351   5.723  0.0232  0.0128  0.0876
    1CHOL    R430989  10.925  10.196   5.490 -0.0734  0.1064  0.0627
    1CHOL    R530990  11.121  10.287   5.518 -0.0863  0.1574 -0.0165
    1CHOL    C130991  11.012  10.461   5.196 -0.3522  0.2924  0.1432
    1CHOL    C230992  10.947  10.445   4.803 -0.1595  0.0793 -0.2230
    1CHOL   ROH30993  21.728  15.084   6.570 -0.4137 -0.1041  0.0932
    1CHOL    R130994  21.827  15.162   6.317 -0.1854 -0.3059  0.1177
    1CHOL    R230995  21.730  15.056   6.080 -0.3257 -0.1295  0.1026
    1CHOL    R330996  21.691  15.317   6.017  0.2039 -0.0482  0.0653
    1CHOL    R430997  21.713  15.180   5.758 -0.4311 -0.2241  0.0704
    1CHOL    R530998  21.830  15.352   5.824  0.0666 -0.4522 -0.1266
    1CHOL    C130999  21.668  15.497   5.510  0.0047 -0.2029  0.0166
    1CHOL    C231000  21.597  15.569   5.161 -0.3573  0.0667  0.0125
    1CHOL   ROH31001  27.831  29.328   6.017  0.2167 -0.1656  0.0617
    1CHOL    R131002  27.859  29.531   5.822  0.1271  0.0248  0.2452
    1CHOL    R231003  27.900  29.476   5.554  0.3148  0.2847  0.2214
    1CHOL    R331004  27.682  29.636   5.521  0.1826  0.1126  0.2413
    1CHOL    R431005  27.811  29.630   5.258  0.2005  0.2564  0.2395
    1CHOL    R531006  27.756  29.808   5.372  0.0507  0.1988  0.2680
    1CHOL    C131007  27.555   0.011   5.054  0.0097  0.0787  0.2688
    1CHOL    C231008  27.466   0.189   4.794  0.0726 -0.2279 -0.1041
    1W        W31009  25.538  21.691   7.490 -0.1204 -0.1728  0.0302
    1W        W31010  14.979  24.173   7.773  0.0508 -0.0844 -0.3151
    1W        W31011  22.513  11.952   1.441 -0.0882  0.1590 -0.2955
    1W        W31012   1.102   3.709   0.788 -0.1423 -0.4057 -0.1926
    1W        W31013  16.203  12.211   0.723 -0.4082  0.1641  0.1689
    1W        W31014  26.276   4.409   3.211  0.1523  0.0541 -0.2775
    1W        W31015  24.105   7.343   7.643 -0.1365  0.0321 -0.1218
    1W        W31016  27.963  28.268   9.195  0.0840  0.2077 -0.0869
    1W        W31017  18.219   6.034   0.613 -0.1005 -0.0507 -0.0272
    1W        W31018   2.101   7.444   2.802  0.1123 -0.0941  0.1444
    1W        W31019   8.300   8.520   6.865 -0.2924 -0.1660 -0.1879
    1W        W31020  20.210   7.796   0.264  0.0685 -0.0958  0.1096
    1W        W31021  18.142  18.618   1.310 -0.0460  0.1669 -0.1045
    1W        W31022  22.635  13.537   0.211  0.1379 -0.0617 -0.0175
    1W        W31023   6.334  29.591   1.029  0.0046 -0.1964  0.3237
    1W        W31024  29.515   3.745   7.059 -0.1972  0.2070 -0.0236
    1W        W31025  12.394   0.263   1.410  0.3899  0.3023  0.3368
    1W        W31026   0.077  14.209   7.680 -0.0232  0.0594  0.0289
    1W        W31027  15.137  28.668   0.021  0.3520 -0.2334  0.1258
    1W        W31028  26.988   2.117   8.218  0.0136 -0.2481 -0.1880
    1W        W31029   6.393   1.459   0.016  0.0659 -0.3767  0.4312
    1W        W31030  16.954   2.072   1.976 -0.2413  0.2367  0.0933
    1W        W31031  20.926  15.079   7.681  0.0175 -0.4999 -0.0035
    1W        W31032  11.583  22.931   8.801 -0.3081  0.2017 -0.3042
    1W        W31033  12.014  13.961   8.679 -0.1162 -0.1484 -0.1107
    1W        W31034  13.776   7.005   2.524  0.0127  0.2588 -0.0899
    1W        W31035   1.524   2.825   7.531  0.1890 -0.1476  0.1560
    1W        W31036  17.070  24.254   7.898 -0.1062  0.1160 -0.0803
    1W        W31037  16.191  17.560   8.247 -0.0619 -0.0698  0.1354
    1W        W31038  11.867  13.426   7.137 -0.1692 -0.3084 -0.0146
    1W        W31039   7.639   7.354   0.870 -0.0910  0.1501 -0.0788
    1W        W31040   3.284  13.865   5.992  0.0939  0.1749  0.1275
    1W        W31041  15.766  11.180   1.237  0.0270  0.4926 -0.0073
    1W        W31042   4.658   4.102   1.922  0.2047  0.0994 -0.3346
    1W        W31043  27.287  25.177   9.386 -0.2679  0.2073  0.0561
    1W        W31044   0.457   8.658   9.499  0.1480  0.2307  0.1707
    1W        W31045   8.322  10.643   6.080 -0.0964  0.1906  0.0948
    1W        W31046   7.627   2.341   7.477 -0.0939  0.0657  0.1633
    1W        W31047  27.295   7.182   1.050 -0.0589 -0.1631 -0.1025
    1W        W31048  16.338  20.146   8.290  0.0598  0.0067  0.0022
    1W        W31049  14.180  22.419   8.349  0.0944  0.0946 -0.0838
    1W        W31050   5.636   5.929   3.276 -0.3533 -0.1627  0.2246
    1W        W31051  28.747   4.440   8.681 -0.2855 -0.0074  0.0307
    1W        W31052  12.640  20.800   7.445  0.3083  0.1635  0.1450
    1W        W31053  10.240  24.716   9.179 -0.1258  0.1025  0.1059
    1W        W31054  13.941  12.523   8.605 -0.0814 -0.2831 -0.0799
    1W        W31055  11.455  26.615   9.057 -0.1677  0.2096 -0.1425
    1W        W31056  22.790  10.002   1.027 -0.1053 -0.6258 -0.0397
    1W        W31057  10.685   4.619   0.757  0.3158 -0.0756  0.1118
    1W        W31058  29.817  26.981   1.214  0.0949 -0.1334  0.1821
    1W        W31059  11.511  24.368   8.759  0.0365  0.1767  0.0286
    1W        W31060  27.646   8.836   1.097 -0.0849 -0.0323  0.0238
    1W        W31061   9.724  26.941   0.871  0.1395 -0.0081  0.1998
    1W        W31062  17.545   3.366   3.036 -0.0645 -0.0261  0.1145
    1W        W31063  16.708  10.752   1.671  0.0308 -0.0991  0.0736
    1W        W31064  15.336  17.361   1.082  0.0471  0.1902 -0.0248
    1W        W31065  14.275   5.779   9.243 -0.0318  0.2199  0.0158
    1W        W31066   9.146  26.082   7.509 -0.1421  0.1453 -0.1530
    1W        W31067  19.649  28.146   0.669  0.1312 -0.0775  0.1120
    1W        W31068   7.746  19.065   0.064 -0.0370  0.0887  0.2310
    1W        W31069  14.958   7.949   0.445  0.2157 -0.4325 -0.5258
    1W        W31070  11.438  29.078   2.505 -0.0225  0.0611  0.1841
    1W        W31071   6.670   1.635   8.717 -0.0497 -0.3571  0.3167
    1W        W31072  29.524  13.258   2.461  0.2649  0.1272  0.2414
    1W        W31073   2.074  28.319   6.494  0.1392 -0.0297 -0.2593
    1W        W31074  25.222  13.066   0.703  0.2763 -0.2433  0.0139
    1W        W31075  24.240  24.275   8.821 -0.1927  0.1104  0.2183
    1W        W31076  15.276  12.806   7.930  0.1262 -0.1366  0.1994
    1W        W31077   9.093  15.161   7.289 -0.1896 -0.2855 -0.0616
    1W        W31078   2.829   7.009   7.069 -0.0586  0.1140  0.2442
    1W        W31079  15.224   6.195   3.079 -0.0758 -0.0972  0.0964
    1W        W31080  29.071  21.630   0.267 -0.3732  0.0907 -0.1339
    1W        W31081   0.746   1.966   1.789 -0.3589 -0.1549  0.0783
    1W        W31082  18.084   4.029   7.679  0.0783 -0.2138 -0.0354
    1W        W31083  23.195  27.739   2.318  0.2201  0.2947 -0.0933
    1W        W31084  16.179   7.375   1.852  0.2836  0.0421  0.0383
    1W        W31085  24.180  22.302   7.796 -0.0093  0.0868  0.0333
    1W        W31086  12.791  25.656   7.911 -0.2048 -0.2751  0.1741
    1W        W31087  20.540  15.623   0.791 -0.1598  0.0492  0.1060
    1W        W31088  16.315  18.820   0.033  0.2985  0.2867  0.0142
    1W        W31089  28.057   7.513   0.103 -0.3863 -0.1705  0.1909
    1W        W31090  12.901  10.737   2.152  0.0242  0.1529 -0.0908
    1W        W31091  11.693  24.480   9.367  0.2861 -0.4666  0.0285
    1W        W31092  15.328  12.184   1.317 -0.1276 -0.2224  0.1381
    1W        W31093   5.025  10.942   0.358 -0.3988  0.0805  0.0628
    1W        W31094   2.000   6.877   0.253 -0.1865  0.2469  0.0894
    1W        W31095  11.530   0.773   0.633  0.1608 -0.3015  0.0956
    1W        W31096   3.331  15.987   0.288  0.0062  0.0210  0.2220
    1W        W31097   1.460  13.753   9.484 -0.0415 -0.2772 -0.1406
    1W        W31098   3.089   8.375   7.747 -0.0013  0.0176  0.3032
    1W        W31099  25.820   4.117   8.895 -0.0456  0.0909 -0.0170
    1W        W31100   1.780   7.046   2.846  0.1759  0.0756 -0.2706
    1W        W31101  15.506  14.654   9.242 -0.1435 -0.1261  0.0789
    1W        W31102  27.056   5.454   6.309  0.0303  0.0632  0.2434
    1W        W31103  17.990   6.955   1.560  0.0904 -0.1803  0.0678
    1W        W31104  24.389  11.520   0.062 -0.3594  0.2887  0.2157
    1W        W31105   1.679  18.025   8.010 -0.1265  0.2097  0.1102
    1W        W31106  16.231  29.640   1.684 -0.1300 -0.0288 -0.1345
    1W        W31107  16.289  20.148   1.635  0.1380  0.2981  0.0121
    1W        W31108  28.256  29.616   7.815  0.0919 -0.0700  0.1109
    1W        W31109   3.783   5.056   8.952 -0.1212 -0.1432  0.1958
    1W        W31110  26.399  15.945   7.904 -0.0528  0.0821  0.0991
    1W        W31111  20.706   6.460   1.215 -0.3269 -0.1795  0.1408
    1W        W31112  14.908  29.594   0.063 -0.2721 -0.0102  0.0020
    1W        W31113   3.610  27.641   8.728  0.2309  0.0942 -0.6731
    1W        W31114   7.901   1.828   3.137 -0.0918 -0.0560 -0.1500
    1W        W31115   5.514   8.086   0.939 -0.0025 -0.3001  0.1075
    1W        W31116   1.861  26.148   0.256 -0.2147  0.1720  0.1804
    1W        W31117  29.599  12.084   9.034 -0.1962 -0.0358  0.0663
    1W        W31118   1.578  13.472   7.216 -0.2077  0.2694  0.1246
    1W        W31119  24.995  12.252   0.447  0.0643 -0.0934 -0.1547
    1W        W31120  25.925  21.759   6.676  0.2595  0.1064 -0.0995
    1W        W31121  27.076  26.872   7.783 -0.3404 -0.0802 -0.0124
    1W        W31122   4.332  22.511   1.423  0.0966  0.2629 -0.2156
    1W        W31123   0.493   0.618   8.066  0.3085 -0.0614  0.0985
    1W        W31124  17.224   2.360   1.108  0.0873  0.1188  0.0379
    1W        W31125  15.873  22.230   8.040  0.1367  0.0627 -0.0810
    1W        W31126  14.732  24.579   0.386 -0.3782  0.4044  0.2959
    1W        W31127  10.490  18.450   0.647  0.0235  0.3928  0.0423
    1W        W31128  20.206  13.349   7.400  0.0806 -0.0672 -0.1583
    1W        W31129   0.101  26.233   2.121 -0.0750  0.0626  0.0906
    1W        W31130  21.134  18.531   6.477 -0.2791  0.0890 -0.1108
    1W        W31131  20.847  18.274   8.413 -0.0866 -0.0920 -0.3292
    1W        W31132  22.360   6.975   7.519  0.0543 -0.2968  0.0519
    1W        W31133  24.858  27.789   8.240 -0.1499  0.1165  0.2196
    1W        W31134   2.026   9.467   0.660 -0.1685  0.0995 -0.0437
    1W        W31135   3.776  16.162   1.153 -0.2616  0.2096 -0.0962
    1W        W31136   0.653   9.575   7.936 -0.3689  0.2784 -0.0336
    1W        W31137   9.729  22.483   8.733 -0.1784 -0.2042 -0.3079
    1W        W31138  20.214   8.442   2.255 -0.2893  0.0703 -0.2342
    1W        W31139  23.560   1.994   1.446  0.0543 -0.2063  0.1422
    1W        W31140  17.682  11.680   7.455 -0.1878  0.1316 -0.0883
    1W        W31141   5.341   1.295   8.915  0.1834  0.0110 -0.0942
    1W        W31142  25.889  25.759   8.157  0.1006 -0.1739 -0.0800
    1W        W31143  12.985  18.482   1.627 -0.4785 -0.0868  0.2532
    1W        W31144   2.811  19.352   0.748  0.4962  0.1503 -0.0126
    1W        W31145   2.972  19.184   2.936 -0.2267  0.0763  0.1418
    1W        W31146  13.832   9.675   7.335  0.2400  0.0052  0.1282
    1W        W31147  10.803   7.322   1.535  0.2049 -0.1829 -0.1479
    1W        W31148   2.424   2.130   0.709  0.0498  0.0555 -0.2586
    1W        W31149  13.603  14.356   7.775  0.1787 -0.0180  0.0395
    1W        W31150  10.465  21.348   0.696  0.2461  0.2231  0.0828
    1W        W31151  24.105  22.871   0.800  0.3108 -0.1031  0.1854
    1W        W31152   5.426  20.857   1.644 -0.0136  0.0441  0.2890
    1W        W31153  29.730  23.842   1.118 -0.0144 -0.0664  0.0438
    1W        W31154   8.322   3.523   2.611 -0.2042  0.5131  0.0657
    1W        W31155  28.559  20.169   8.676  0.0379 -0.3527  0.0464
    1W        W31156  18.952   3.243   9.289 -0.3365  0.0792  0.0811
    1W        W31157  22.838   7.730   1.242  0.1362  0.0335  0.0881
    1W        W31158  22.184   2.156   1.087  0.0466 -0.2613 -0.1037
    1W        W31159   3.063  20.708   1.685  0.2541  0.2833  0.3140
    1W        W31160  28.456  23.635   6.602 -0.0584 -0.0222  0.0145
    1W        W31161  25.145   9.930   2.020 -0.4008  0.1001 -0.1057
    1W        W31162   3.549   4.928   7.045 -0.0734  0.3243  0.1511
    1W        W31163  14.757  18.963   9.033 -0.0499  0.2307 -0.0038
    1W        W31164   8.462   2.963   8.317  0.1813  0.1331 -0.1770
    1W        W31165  20.620   5.424   7.394 -0.1203  0.0136 -0.0102
    1W        W31166   8.377  14.455   7.688  0.2812  0.4025 -0.2309
    1W        W31167  21.535   0.049   2.819 -0.2776 -0.2259  0.1458
    1W        W31168   3.630  29.617   1.685  0.2966  0.1763 -0.1521
    1W        W31169  10.063  15.810   8.896 -0.1469  0.1996 -0.1623
    1W        W31170  12.461  27.616   1.769  0.2271  0.1564  0.2354
    1W        W31171  14.708  13.872   8.642  0.2312  0.1712  0.0048
    1W        W31172  17.114  15.976   6.996 -0.0691 -0.0260  0.0072
    1W        W31173  13.978   6.389   1.232 -0.0192 -0.1070 -0.1552
    1W        W31174  15.577  23.014   7.174  0.1708  0.0154  0.2730
    1W        W31175  22.866  13.583   8.437 -0.0775 -0.3424 -0.1942
    1W        W31176  24.661   4.018   1.128  0.2192 -0.0578 -0.2719
    1W        W31177  21.345  28.497   1.387 -0.0331 -0.0067  0.2370
    1W        W31178  25.769  24.876   0.282 -0.2118 -0.0954 -0.0805
    1W        W31179   2.168  24.363   5.970  0.4301  0.1887  0.0020
    1W        W31180  15.219   9.694   2.269 -0.0957 -0.0450  0.0959
    1W        W31181  14.791   4.896   8.560  0.1292  0.0015  0.1071
    1W        W31182   2.977  10.847   7.313  0.2731  0.0750 -0.0152
    1W        W31183  20.223  14.976   1.827  0.0010 -0.2345  0.1223
    1W        W31184  14.165  16.351   8.689 -0.0627 -0.3540 -0.0463
    1W        W31185  26.413   3.084   0.769 -0.1057  0.0723  0.0998
    1W        W31186   0.070  25.621   9.026  0.0166  0.2709  0.0586
    1W        W31187  29.426   9.373   0.498  0.1532  0.2208  0.1074
    1W        W31188  23.872  19.539   8.448  0.0330  0.0733 -0.2421
    1W        W31189   8.594   8.769   2.094  0.3898 -0.4855 -0.2689
    1W        W31190  19.971  21.424   9.382 -0.1024  0.2611  0.0133
    1W        W31191   2.108  19.029   3.031  0.2291  0.0285  0.2432
    1W        W31192  24.076  14.350   1.118  0.1955  0.0233 -0.2325
    1W        W31193  11.800   6.073   9.023 -0.4043 -0.2357  0.3143
    1W        W31194  15.753   1.518   0.468 -0.1615 -0.2835 -0.1487
    1W        W31195   3.737  20.434   6.257  0.4701  0.1169 -0.2303
    1W        W31196  19.326  28.610   6.630 -0.2593 -0.0412  0.3096
    1W        W31197   4.580  18.184   2.918 -0.2301 -0.1950  0.0531
    1W        W31198  24.355  28.753   2.810  0.0425  0.1160 -0.1880
    1W        W31199  25.050  24.726   9.264  0.1560 -0.0879  0.1196
    1W        W31200  20.844  27.077   9.473 -0.0941  0.4050  0.1925
    1W        W31201  23.053  28.394   8.681 -0.0345  0.4059  0.2833
    1W        W31202   3.581  26.545   8.219 -0.1747 -0.0481 -0.2475
    1W        W31203   7.515  12.134   6.654  0.1433 -0.1689 -0.1594
    1W        W31204  19.714  10.095   7.965  0.2531  0.3330 -0.4180
    1W        W31205  17.178  12.283   2.479 -0.0169 -0.0155 -0.0327
    1W        W31206  15.387   2.855   1.334 -0.2796 -0.2132  0.3377
    1W        W31207  21.032  14.106   7.942 -0.1427  0.2205 -0.1378
    1W        W31208  14.848  19.803   6.785  0.1431  0.2057  0.1689
    1W        W31209  17.897  25.511   6.101 -0.1427  0.2144  0.3136
    1W        W31210  11.429   8.473   6.762  0.0729  0.1529  0.1898
    1W        W31211   6.442  12.647   1.716  0.3594  0.1533 -0.0878
    1W        W31212  18.216   0.055   8.365  0.0879 -0.0983 -0.2400
    1W        W31213  29.106  19.209   6.859 -0.1796 -0.0874 -0.1406
    1W        W31214  22.485  10.228   1.924 -0.0117 -0.0943 -0.1830
    1W        W31215   5.852  26.568   1.778  0.0602 -0.1961  0.1861
    1W        W31216  11.368  27.979   0.746 -0.1931  0.1236 -0.0352
    1W        W31217  11.579  13.348   8.471 -0.2865  0.1927 -0.1232
    1W        W31218  14.877  28.955   8.828  0.0614 -0.1606 -0.1105
    1W        W31219   8.447  14.403   1.077 -0.0942 -0.1919 -0.0779
    1W        W31220  23.474  20.910   0.239 -0.0779 -0.1290 -0.1916
    1W        W31221   1.259   5.381   1.493 -0.1705  0.0114  0.3002
    1W        W31222   6.900  16.322   6.771 -0.4932 -0.0431  0.1691
    1W        W31223  23.823  18.739   6.075  0.0391  0.0911 -0.0141
    1W        W31224   6.077  25.772   6.622 -0.2682  0.0125 -0.0596
    1W        W31225  12.189  27.823   3.212  0.1343  0.1034  0.0690
    1W        W31226   8.039  17.205   0.396  0.1461 -0.0117  0.1979
    1W        W31227  21.034   0.274   2.338 -0.0668 -0.0697 -0.0342
    1W        W31228   4.683  27.247   8.839 -0.0133 -0.3513  0.0551
    1W        W31229  13.614  10.766   2.576 -0.1269 -0.0505  0.1132
    1W        W31230  29.854  15.580   2.485 -0.0005 -0.1508 -0.1115
    1W        W31231  16.131  13.685   0.726 -0.0030 -0.0482 -0.2596
    1W        W31232  21.305  16.484   8.762  0.0266  0.0343 -0.1702
    1W        W31233  14.924  10.050   8.702 -0.0005 -0.1279 -0.2069
    1W        W31234   8.564  24.077   0.054 -0.2307 -0.0457 -0.1564
    1W        W31235   0.308  26.173   6.868 -0.2977  0.1318  0.3705
    1W        W31236   6.010  11.488   2.243  0.0354 -0.3870  0.2331
    1W        W31237   7.771  21.534   8.654 -0.1926  0.0970  0.0028
    1W        W31238  10.654   5.523   9.086  0.3342 -0.3773  0.0495
    1W        W31239   3.260  22.966   8.989 -0.0037 -0.1018  0.0868
    1W        W31240  20.232  25.358   7.631  0.1203 -0.3128  0.0581
    1W        W31241   3.103  23.721   8.153 -0.1155  0.1728 -0.0292
    1W        W31242  23.903  10.879   8.516 -0.3666  0.0371  0.0539
    1W        W31243  25.075   2.283   1.625 -0.2920 -0.0917 -0.1523
    1W        W31244   3.219  20.844   8.633 -0.0404  0.1165  0.1768
    1W        W31245  20.611  15.983   6.641  0.0112  0.1179  0.1366
    1W        W31246   5.825   9.958   1.103 -0.1899  0.1108  0.0587
    1W        W31247   2.592  25.069   6.098  0.2202  0.1957  0.1694
    1W        W31248  28.456   2.717   7.142  0.0644 -0.1108  0.0900
    1W        W31249   0.522  12.675   0.074 -0.1441 -0.1452 -0.3532
    1W        W31250  18.512  26.923   5.940 -0.0050 -0.2438  0.3797
    1W        W31251  24.754   0.147   2.214  0.0549  0.2466  0.1813
    1W        W31252   2.642  12.455   0.833 -0.2272  0.0163  0.2950
    1W        W31253   4.417  15.770   5.792 -0.0423  0.2020  0.1342
    1W        W31254  18.841   1.431   3.129  0.2823 -0.0935 -0.2695
    1W        W31255  12.562  23.138   7.783  0.0429  0.3118 -0.0539
    1W        W31256   8.143  14.207   5.875  0.1948  0.2393 -0.0579
    1W        W31257  20.449   4.289   8.171 -0.2496 -0.0610  0.1283
    1W        W31258   9.404  19.616   9.110 -0.1690  0.0519 -0.0118
    1W        W31259  11.552   6.901   0.975  0.0602  0.0488 -0.3720
    1W        W31260  19.083  16.907   5.855 -0.2531  0.1716  0.1632
    1W        W31261  11.172   1.905   6.946  0.0181 -0.2299  0.1678
    1W        W31262  25.503  24.986   0.751 -0.3531  0.1988 -0.0727
    1W        W31263   4.046  21.189   7.156 -0.1418  0.0748  0.0081
    1W        W31264  18.187   6.640   8.233 -0.0959  0.1301 -0.0254
    1W        W31265  17.843  11.338   8.857  0.1082  0.0729 -0.2697
    1W        W31266  16.643  20.613   9.087 -0.0351  0.0752  0.2204
    1W        W31267  10.703  22.259   8.083 -0.2532 -0.0507 -0.3511
    1W        W31268   9.517  18.511   5.830  0.1198 -0.2945  0.0322
    1W        W31269   9.270  23.224   8.904  0.2523  0.2564  0.0264
    1W        W31270  18.522   4.988   1.167 -0.1142 -0.0409 -0.0949
    1W        W31271   0.029  17.529   8.063 -0.0719 -0.1188 -0.1060
    1W        W31272  11.462  17.246   8.108 -0.0126  0.0074  0.2949
    1W        W31273  21.693  12.318   1.748 -0.2514 -0.1863 -0.1674
    1W        W31274  10.777  26.384   9.365  0.0102 -0.2090 -0.0104
    1W        W31275  11.575   8.832   0.289  0.2374 -0.0052  0.1385
    1W        W31276   0.571  20.334   6.817 -0.3605  0.1648  0.1963
    1W        W31277   6.583  26.113   0.778 -0.0296  0.1469  0.1471
    1W        W31278   6.900   1.681   9.164 -0.2581 -0.1568 -0.1134
    1W        W31279  18.407  24.443   8.763  0.1151  0.2131  0.3870
    1W        W31280   6.940  25.636   2.582  0.1404 -0.1879 -0.0406
    1W        W31281  10.743   6.812   0.601 -0.0565 -0.1177 -0.2779
    1W        W31282  14.527  16.135   6.201 -0.0085  0.0501 -0.1928
    1W        W31283  14.291   6.006   0.957  0.2338  0.1847  0.0594
    1W        W31284  26.701   9.109   7.771  0.0997 -0.3403  0.0897
    1W        W31285  19.708  17.257   0.507 -0.2378  0.0260 -0.1861
    1W        W31286  13.534  21.432   9.380  0.2436 -0.2155  0.1311
    1W        W31287  24.769  23.790   1.455  0.1201  0.1803 -0.0189
    1W        W31288  13.973  15.609   2.863  0.5788  0.1332  0.0781
    1W        W31289  21.646   1.283   8.061  0.0043  0.0204  0.0316
    1W        W31290   0.421   5.841   8.722  0.0330 -0.0097 -0.1299
    1W        W31291  14.912   7.595   1.748  0.2902  0.0265 -0.0827
    1W        W31292  20.778  29.713   8.214 -0.2583  0.2558 -0.1063
    1W        W31293  19.873  18.199   6.676 -0.1388  0.0497  0.0816
    1W        W31294   6.325  13.873   2.222  0.1885 -0.2356  0.1835
    1W        W31295  18.926   9.461   2.687  0.1325  0.0284 -0.1415
    1W        W31296   7.686  11.307   7.009  0.1390  0.1350  0.0913
    1W        W31297  25.555   1.164   2.477 -0.1012  0.0049  0.0994
    1W        W31298  24.864  12.023   0.006  0.2858  0.2883  0.1925
    1W        W31299  10.560  25.284   0.561 -0.1215 -0.1646  0.1149
    1W        W31300  20.288  23.758   6.749  0.2182  0.2139  0.0600
    1W        W31301  16.556  13.364   0.073 -0.2401  0.0897  0.1919
    1W        W31302  22.498  25.787   1.338  0.1750 -0.0277  0.1920
    1W        W31303  10.108   1.099   8.358  0.1174  0.1541 -0.1436
    1W        W31304  13.091  27.540   1.881 -0.2076 -0.1820  0.1079
    1W        W31305   0.928  19.183   2.254 -0.2061  0.3464 -0.1916
    1W        W31306  27.960   2.788   2.038  0.1064  0.0916  0.4831
    1W        W31307  24.427  13.559   6.535  0.0129  0.1004 -0.1215
    1W        W31308  12.418  17.368   2.309  0.1219  0.0073  0.0874
    1W        W31309  25.132   9.469   3.393  0.1540 -0.2777  0.1737
    1W        W31310  15.782   1.781   1.425 -0.0984  0.0513 -0.4024
    1W        W31311  11.648   6.914   1.524  0.1453 -0.1430 -0.0959
    1W        W31312   0.801   7.753   0.065  0.0343  0.0502  0.2256
    1W        W31313   6.968   8.107   3.579 -0.4570 -0.0552 -0.0893
    1W        W31314   5.346  27.265   5.785  0.0779  0.1289 -0.2042
    1W        W31315  22.811  16.719   8.099 -0.3216 -0.0643 -0.0570
    1W        W31316  19.340  26.305   8.194 -0.1119  0.2690  0.1726
    1W        W31317  21.111  28.787   3.385  0.1239 -0.1709  0.0171
    1W        W31318  17.283   9.161   8.354  0.2190 -0.0156 -0.0064
    1W        W31319   9.615  25.328   8.553  0.0346 -0.1550  0.0895
    1W        W31320  14.815  11.232   2.820 -0.1843  0.0438  0.1227
    1W        W31321  18.352  15.570   7.513 -0.0558  0.2647  0.0864
    1W        W31322  18.830   8.156   9.247  0.0513  0.2569 -0.0158
    1W        W31323  28.543  25.936   2.925 -0.0515 -0.2891  0.4378
    1W        W31324  26.917  11.625   8.502  0.0746  0.2575  0.0724
    1W        W31325  16.913   6.221   1.242 -0.1030 -0.0566 -0.1502
    1W        W31326  22.582  24.067   6.599 -0.1610  0.0540 -0.0740
    1W        W31327  18.566  23.460   6.245  0.1446  0.0991  0.4350
    1W        W31328  20.906  22.097   6.638 -0.1164 -0.2569  0.2000
    1W        W31329  12.604   0.488   8.137  0.1297  0.0813  0.0157
    1W        W31330   2.704  15.919   0.004  0.0872 -0.1786 -0.1659
    1W        W31331   3.838  15.548   8.371  0.1331 -0.2174  0.2128
    1W        W31332  28.442   6.328   1.240 -0.4914 -0.2882 -0.0600
    1W        W31333   5.780  18.548   7.057  0.0305  0.5703  0.1446
    1W        W31334   6.437  19.884   9.022  0.2112  0.2876 -0.2728
    1W        W31335  12.114  25.094   0.583  0.0236 -0.3572 -0.2093
    1W        W31336  18.905  14.782   0.170 -0.0202 -0.1831  0.1436
    1W        W31337  12.597  16.019   7.066 -0.0873  0.1155 -0.0520
    1W        W31338  25.385   9.486   1.062  0.1764  0.0582  0.2434
    1W        W31339  21.525  25.668   6.522 -0.0323 -0.4347 -0.1789
    1W        W31340  27.055  16.845   8.889 -0.0788  0.0659 -0.0146
    1W        W31341  22.760  21.629   8.827  0.0212  0.2766 -0.0476
    1W        W31342  24.897  19.272   0.927 -0.0240  0.3505 -0.3019
    1W        W31343  28.030   3.967   0.685 -0.0467 -0.1230  0.1329
    1W        W31344  28.074  22.725   8.553  0.0599 -0.0376  0.2348
    1W        W31345   9.154  25.573   8.664  0.1571 -0.0026 -0.0195
    1W        W31346  25.058  11.435   0.284 -0.0779  0.1220 -0.1015
    1W        W31347  22.799   1.040   1.509 -0.2398 -0.3489 -0.0332
    1W        W31348   6.512  24.741   0.921  0.2889  0.1996 -0.2620
    1W        W31349  13.427  22.524   9.518  0.1534  0.2381 -0.1266
    1W        W31350   4.102  29.544   7.942 -0.0446 -0.2615 -0.4471
    1W        W31351   1.409  15.863   1.868  0.2803  0.1330  0.0750
    1W        W31352   4.939   5.740   1.518  0.0552 -0.0936  0.2359
    1W        W31353  20.281  13.054   1.981 -0.1892 -0.3162  0.2086
    1W        W31354  14.898  17.891   8.056  0.0690  0.0945  0.2449
    1W        W31355   4.999  22.854   0.351 -0.2473 -0.1034  0.1121
    1W        W31356  11.112  19.889   2.126 -0.1236 -0.1292  0.0822
    1W        W31357   5.262  15.147   1.850  0.0706 -0.1055  0.2102
    1W        W31358  15.858  14.773   8.894 -0.2909  0.2261  0.0107
    1W        W31359  29.048  17.274   7.162 -0.1107 -0.2499  0.1710
    1W        W31360  29.108  16.444   1.222 -0.0241 -0.1376  0.1703
    1W        W31361   8.889  28.117   2.074 -0.1199 -0.0916 -0.0185
    1W        W31362  22.925  12.680   7.247  0.2014  0.3262 -0.0532
    1W        W31363  28.236  22.436   2.859  0.4645  0.1405  0.0142
    1W        W31364  21.430   3.003   3.431  0.1135 -0.0781  0.2242
    1W        W31365  16.440  24.556   1.771  0.0169  0.1980  0.0347
    1W        W31366   9.545  15.677   8.889 -0.1805  0.0753 -0.3090
    1W        W31367   3.470  19.672   1.788 -0.0540  0.3006 -0.0894
    1W        W31368   6.194  18.502   7.333  0.0417 -0.3138  0.0907
    1W        W31369   7.982   1.343   1.317 -0.0841 -0.0434  0.5283
    1W        W31370   4.883  12.781   2.090  0.1710  0.2765 -0.1315
    1W        W31371  23.867  23.555   8.915  0.1746  0.3525 -0.2002
    1W        W31372  28.672   6.650   7.049 -0.0012  0.1023  0.0265
    1W        W31373  21.292  28.935   8.837 -0.4425 -0.1263  0.2873
    1W        W31374   3.603  11.998   8.274 -0.2894  0.0416 -0.4311
    1W        W31375  10.529  27.610   1.978  0.1803 -0.0623 -0.0778
    1W        W31376   5.776  18.766   8.201 -0.3886  0.1349  0.0071
    1W        W31377  20.724   7.777   8.923  0.0750 -0.1975 -0.1692
    1W        W31378  11.389  12.854   1.566 -0.1069 -0.3158 -0.3524
    1W        W31379   1.384   6.900   6.313  0.0592 -0.5114  0.1347
    1W        W31380  27.806  19.051   2.507  0.0319  0.1081  0.1661
    1W        W31381   0.387   0.928   8.958  0.2776  0.0173  0.2235
    1W        W31382   9.780  28.154   2.994 -0.2910 -0.3586 -0.0456
    1W        W31383  19.105   1.956   4.209  0.1469  0.0956 -0.2696
    1W        W31384  28.672  10.146   6.708 -0.1612  0.0051 -0.2357
    1W        W31385  19.969   0.613   2.845 -0.2068 -0.2178 -0.1636
    1W        W31386   9.086  29.643   1.617 -0.1735  0.3243 -0.1608
    1W        W31387  27.314  11.270   7.252 -0.2101  0.1031  0.2539
    1W        W31388   6.841   8.395   2.353 -0.4214  0.1020  0.2461
    1W        W31389  14.281  24.978   8.647 -0.1874  0.2448 -0.0414
    1W        W31390  13.166  24.333   0.986  0.2427 -0.0993  0.1930
    1W        W31391  20.753  26.847   7.122 -0.0314  0.0805  0.3154
    1W        W31392   8.270  28.909   8.943  0.0167  0.0921 -0.0660
    1W        W31393  11.598  29.537   2.769 -0.2036 -0.2049 -0.0096
    1W        W31394   9.730   3.497   0.367 -0.4728  0.2000  0.5081
    1W        W31395  21.222   7.760   9.014  0.1468  0.0630 -0.1856
    1W        W31396  19.261  11.203   9.470 -0.0517 -0.0641 -0.2732
    1W        W31397  18.818  12.367   6.731 -0.0780 -0.1282  0.1001
    1W        W31398  25.516  13.167   7.717 -0.0634 -0.0728  0.0785
    1W        W31399   0.794  20.242   1.102 -0.0453  0.0486  0.0625
    1W        W31400  21.641  28.615   9.069  0.1165 -0.1582  0.4723
    1W        W31401  19.987  12.769   8.174  0.1225 -0.3741  0.1212
    1W        W31402  18.683  19.031   8.795  0.2379 -0.0928 -0.2411
    1W        W31403   7.170  14.862   7.027 -0.3172 -0.0753 -0.2838
    1W        W31404   0.625  14.406   0.092  0.1382  0.0390  0.0846
    1W        W31405  20.914  12.382   0.518 -0.1411  0.0483 -0.0627
    1W        W31406   9.925   1.478   8.127 -0.1241  0.1384  0.0651
    1W        W31407  27.575  18.231   2.471 -0.3461 -0.1557 -0.1976
    1W        W31408  18.100  29.085   8.131 -0.2939  0.1978  0.0363
    1W        W31409  19.036  12.603   0.619  0.1121 -0.2289  0.0898
    1W        W31410   1.868   1.922   8.440 -0.0963  0.1664  0.1125
    1W        W31411  16.291  10.516   0.310 -0.1084  0.0699 -0.0308
    1W        W31412   2.968  21.454   6.193 -0.1499 -0.2291 -0.0378
    1W        W31413  24.913   5.219   9.173 -0.0317 -0.0319  0.0206
    1W        W31414  22.204  10.161   8.383  0.1324 -0.3004  0.0317
    1W        W31415   6.833  22.495   5.801  0.0616  0.0138  0.1628
    1W        W31416   0.489  21.483   9.120 -0.0934  0.2251  0.0589
    1W        W31417  16.170   1.829   1.895 -0.1123  0.1684  0.2242
    1W        W31418   3.326  13.824   0.142  0.0381 -0.0813 -0.3247
    1W        W31419  15.028  14.637   9.367 -0.0468  0.0018  0.1264
    1W        W31420  22.171  27.500   8.022  0.1025 -0.3641  0.5223
    1W        W31421   8.466  26.518   1.138 -0.1576 -0.1048 -0.3628
    1W        W31422  27.265  13.453   7.326  0.0447 -0.3942  0.0874
    1W        W31423  28.684   7.121   1.715  0.1684  0.1549 -0.0670
    1W        W31424   3.178  27.491   0.749 -0.0399  0.0284  0.3846
    1W        W31425  14.392   3.970   1.708 -0.0581 -0.0810 -0.7325
    1W        W31426  24.926  21.772   2.690 -0.0387 -0.0989 -0.2608
    1W        W31427  23.434  19.778   8.328 -0.1449  0.0749  0.1639
    1W        W31428  29.667   9.590   6.450 -0.0331  0.2943  0.1617
    1W        W31429   5.425  26.506   6.979 -0.3432 -0.0123 -0.1081
    1W        W31430  15.226  25.703   8.105  0.0055  0.0786  0.3313
    1W        W31431  10.350  27.440   8.663 -0.2905  0.1945 -0.0565
    1W        W31432  13.105  14.605   6.668 -0.0730 -0.2021  0.0498
    1W        W31433  27.611  13.726   2.221  0.0990 -0.0982 -0.0609
    1W        W31434  17.418  10.799   9.528  0.0206  0.1405 -0.0049
    1W        W31435  20.533   7.159   2.021  0.2674  0.3402  0.1425
    1W        W31436   1.587  10.676   7.192  0.0304 -0.0845 -0.0248
    1W        W31437   7.472   4.204   8.930 -0.4963 -0.1969  0.0430
    1W        W31438   6.252   5.396   7.972 -0.1388 -0.0233  0.3196
    1W        W31439  17.118  23.462   6.621 -0.2716  0.0213 -0.1465
    1W        W31440  14.966  26.729   8.576 -0.2013  0.1214  0.3797
    1W        W31441  25.908   3.162   9.328  0.1367  0.1878  0.1089
    1W        W31442   5.469  19.902   8.581  0.1784 -0.2407  0.0717
    1W        W31443  23.074   1.105   2.832 -0.0290 -0.0899  0.1376
    1W        W31444   9.663  18.617   7.736  0.1922 -0.0680 -0.0702
    1W        W31445  20.824   6.555   3.350 -0.4462 -0.2028  0.0635
    1W        W31446  11.680  18.058   6.733 -0.2001 -0.3302  0.1858
    1W        W31447  11.262   5.764   8.425 -0.1289 -0.2051 -0.2477
    1W        W31448  19.316  27.172   1.118 -0.0238  0.1286 -0.1492
    1W        W31449   1.320  17.235   8.979 -0.3145  0.1878  0.1553
    1W        W31450   8.740   4.332   8.262  0.2351  0.1591  0.1935
    1W        W31451  20.276   7.464   2.395 -0.1476 -0.0147  0.3344
    1W        W31452   6.580   7.284   7.733  0.0566  0.0982 -0.2097
    1W        W31453  12.971  16.913   2.017 -0.0165  0.1374  0.0844
    1W        W31454  24.024  19.120   2.019  0.2565 -0.1771 -0.1905
    1W        W31455   0.467  27.317   9.418 -0.1709 -0.1788 -0.1901
    1W        W31456  10.397   6.940   0.328  0.1080  0.4061  0.1549
    1W        W31457  12.257  12.556   1.016 -0.2815  0.2690  0.1010
    1W        W31458  11.670  21.054   7.227  0.2069  0.0421  0.2896
    1W        W31459  19.504  28.470   8.192  0.0231  0.1695 -0.0925
    1W        W31460  24.003  10.017   8.399  0.0893 -0.1216 -0.0338
    1W        W31461  16.395   2.049   4.226  0.1432 -0.3072 -0.0317
    1W        W31462  12.545  23.172   9.329 -0.1589 -0.0146  0.1451
    1W        W31463   7.895  28.258   9.452 -0.0608 -0.0822 -0.1312
    1W        W31464  25.394   9.739   0.054  0.1509  0.0397 -0.0444
    1W        W31465   0.362   3.602   8.707 -0.4052  0.0410 -0.1051
    1W        W31466  16.357  12.843   7.859  0.0634 -0.2063 -0.1556
    1W        W31467  10.340   4.942   4.057 -0.1332  0.0337 -0.2462
    1W        W31468   7.586  18.052   8.522 -0.2366 -0.3370  0.1286
    1W        W31469  14.331   2.455   1.726  0.2724  0.1051 -0.3242
    1W        W31470  28.456   4.146   1.004 -0.2650  0.0042  0.1193
    1W        W31471   8.094  23.200   8.283  0.1270 -0.0555 -0.1185
    1W        W31472   4.247   1.227   7.806  0.1617  0.3759 -0.1041
    1W        W31473   0.614  25.566   9.433  0.3072  0.0494  0.0306
    1W        W31474  14.113  26.761   8.857  0.5004  0.1226  0.1573
    1W        W31475   4.855   3.013   8.568 -0.0731  0.2862  0.2025
    1W        W31476   6.786  18.232   2.461  0.3646 -0.0507  0.2026
    1W        W31477  25.016   7.173   1.746  0.2725  0.1856 -0.0428
    1W        W31478   5.694   2.226   7.958 -0.1399  0.0216  0.0720
    1W        W31479  13.693  15.080   0.703 -0.2493 -0.0008 -0.1164
    1W        W31480   8.268  28.452   8.055 -0.1591  0.0411 -0.1367
    1W        W31481  18.883  17.612   0.606  0.0966 -0.0757 -0.1273
    1W        W31482  16.786   9.886   9.389 -0.0590 -0.2933 -0.0425
    1W        W31483  26.129   3.638   0.515  0.0456 -0.0000 -0.0352
    1W        W31484  17.570  16.086   6.407  0.0108  0.0060  0.0033
    1W        W31485  27.589   2.651   7.101  0.1480 -0.5256 -0.0050
    1W        W31486   3.817   4.496   7.813  0.1381 -0.1285  0.0736
    1W        W31487   9.919   2.044   6.824 -0.0536  0.0681 -0.0624
    1W        W31488  27.645   5.475   8.289  0.1837  0.1018  0.0292
    1W        W31489  16.767  13.094   1.142 -0.0066  0.1346  0.1790
    1W        W31490   9.762   1.607   1.829 -0.1780  0.0035  0.2510
    1W        W31491  16.896  28.241   0.183 -0.0389  0.0691 -0.0101
    1W        W31492  25.181  11.036   6.886 -0.1050  0.1237  0.1000
    1W        W31493  17.079  17.159   6.814 -0.0128 -0.0450  0.4828
    1W        W31494  22.709   8.115   9.184 -0.0028 -0.0802  0.0245
    1W        W31495  27.179   0.246   8.801  0.2017 -0.0496  0.0233
    1W        W31496  25.611  19.291   8.612 -0.1879 -0.0976  0.0927
    1W        W31497  26.290  15.500   8.184 -0.1210 -0.0707  0.3644
    1W        W31498  22.732   4.383   1.082 -0.1621  0.1798  0.1184
    1W        W31499  24.654   6.781   1.684  0.2511  0.1188  0.2269
    1W        W31500  12.460   2.215   3.266 -0.2088 -0.1408 -0.2575
    1W        W31501  24.929  14.514   1.575 -0.1696  0.0254  0.0543
    1W        W31502  15.775  18.314   2.366  0.4243  0.2175 -0.0001
    1W        W31503   5.973  18.528   2.480 -0.0748  0.1257  0.2677
    1W        W31504  23.831  11.162   1.804  0.3137  0.2193 -0.0814
    1W        W31505  29.192  26.175   8.030 -0.1081  0.0958 -0.1913
    1W        W31506  24.594  22.645   0.502  0.1481 -0.1340 -0.0481
    1W        W31507  29.048  18.825   0.471 -0.1548 -0.3029 -0.1390
    1W        W31508  13.111  27.955   2.338  0.0369  0.2873 -0.0827
    1W        W31509   6.345  10.892   6.945 -0.1553 -0.0205  0.0158
    1W        W31510  10.603  14.177   1.172  0.2452 -0.1916 -0.3719
    1W        W31511   1.879   1.573   8.059 -0.1695  0.1036  0.1747
    1W        W31512   6.477   5.120   2.300 -0.0829 -0.3677  0.1545
    1W        W31513   2.126  25.272   6.552 -0.0207  0.2600  0.0417
    1W        W31514   9.169  12.737   7.188 -0.1068  0.1463  0.1402
    1W        W31515  18.207   0.245   3.384  0.1846 -0.1054  0.0898
    1W        W31516  14.691  12.545   2.007  0.0950  0.1292 -0.2024
    1W        W31517   9.966  13.893   7.106  0.3498  0.1475  0.0303
    1W        W31518  10.265  29.730   8.126 -0.2573 -0.3244  0.0325
    1W        W31519  24.708   3.233   9.458  0.0600 -0.1762 -0.2180
    1W        W31520   2.318  12.949   8.553 -0.0878 -0.0983 -0.0811
    1W        W31521  21.685  21.252   1.207  0.0619  0.0175  0.1492
    1W        W31522  25.543  24.373   0.333 -0.2209  0.0340  0.0911
    1W        W31523   2.693   4.715   2.108  0.2969 -0.0635 -0.0729
    1W        W31524   7.697  24.596   5.586 -0.0603 -0.0071 -0.0787
    1W        W31525   1.734   7.352   0.257 -0.1906  0.0379  0.0834
    1W        W31526  17.227   5.116   8.206 -0.0408  0.2664 -0.2192
    1W        W31527  16.708  28.496   0.797 -0.0251 -0.0219 -0.0345
    1W        W31528  28.195  20.894   7.932  0.0755 -0.1265  0.0743
    1W        W31529  17.066  21.998   8.231  0.3573 -0.2812  0.1615
    1W        W31530  14.952  18.535   5.822  0.1562 -0.1369  0.0521
    1W        W31531  14.589   8.944   0.212 -0.1975 -0.1113  0.3920
    1W        W31532   0.597  13.680   8.609 -0.0593 -0.0569 -0.0620
    1W        W31533  24.789  27.093   7.327  0.0978  0.2645 -0.0602
    1W        W31534  28.245   8.478   2.337 -0.2908 -0.1028  0.0293
    1W        W31535   8.106  21.075   0.916  0.1414  0.1044 -0.0987
    1W        W31536  17.156  19.272   6.592  0.0353 -0.0684  0.0643
    1W        W31537  21.159  22.209   2.591  0.0744  0.0088  0.1797
    1W        W31538  28.169   0.716   2.356 -0.1126 -0.2007 -0.1434
    1W        W31539  29.398  11.534   1.878  0.0576 -0.0002  0.4180
    1W        W31540  22.897   6.213   0.551 -0.1179 -0.1310  0.2916
    1W        W31541  20.475   5.196   1.783  0.0858 -0.1923  0.0175
    1W        W31542  11.747  15.031   7.835  0.0082 -0.2925  0.0560
    1W        W31543  25.981   2.200   1.401 -0.0673  0.0097 -0.1130
    1W        W31544  22.288  28.280   2.260  0.2130  0.1487 -0.0043
    1W        W31545   2.173  14.398   8.768 -0.3056 -0.0511 -0.1105
    1W        W31546   0.587  27.020   0.755 -0.1266  0.1779 -0.2486
    1W        W31547  27.234  13.363   8.312  0.1777  0.1193  0.1717
    1W        W31548  29.602  17.341   8.470 -0.2838 -0.2586 -0.2417
    1W        W31549   5.862   6.365   8.670  0.0341  0.1709 -0.1343
    1W        W31550  18.000   6.755   9.433 -0.0320 -0.1235  0.2110
    1W        W31551  27.966  23.561   3.014 -0.0281  0.0104  0.0649
    1W        W31552   4.815  20.468   1.261  0.1089 -0.0929 -0.1194
    1W        W31553  18.037  25.436   8.446  0.1377 -0.2798  0.0082
    1W        W31554  27.290   2.594   2.760  0.1134  0.2987 -0.0119
    1W        W31555   6.265  15.490   7.859 -0.1856 -0.2651  0.2461
    1W        W31556   2.604   5.438   9.495  0.0633 -0.0259 -0.1151
    1W        W31557  23.622  18.208   1.530 -0.1161  0.0348  0.0596
    1W        W31558  22.601  10.472   0.221  0.2458  0.3514  0.0312
    1W        W31559   4.838  28.740   9.088  0.1105 -0.1463 -0.1352
    1W        W31560   3.689  23.764   5.922 -0.0186 -0.0171 -0.1040
    1W        W31561  28.003  18.636   6.856 -0.0214 -0.0455 -0.2814
    1W        W31562   6.127   2.831   0.295 -0.0433 -0.0187 -0.2531
    1W        W31563  24.369  22.846   9.315  0.0588 -0.0245  0.2129
    1W        W31564  12.632   0.130   7.736 -0.0362  0.0685 -0.1343
    1W        W31565  13.873  13.192   7.940 -0.0596  0.2321 -0.1254
    1W        W31566  19.036  10.217   2.002 -0.2610 -0.1224 -0.1862
    1W        W31567  24.518   1.202   7.956 -0.3989  0.3662  0.0496
    1W        W31568  20.199  18.077   1.191 -0.0891  0.0813 -0.1076
    1W        W31569   9.743   7.350   0.658 -0.1591  0.2036 -0.3491
    1W        W31570   6.373  14.772   1.222  0.1353  0.1347  0.4924
    1W        W31571  22.779  17.163   0.932 -0.1495 -0.2564 -0.1332
    1W        W31572  19.034  25.737   5.668 -0.1367  0.0693  0.1985
    1W        W31573  26.309   5.401   8.169 -0.2179 -0.0251 -0.2122
    1W        W31574  22.441   7.972   1.485  0.1756  0.1385 -0.1170
    1W        W31575  18.461  21.969   6.596  0.0594  0.2615 -0.1374
    1W        W31576  16.162  20.085   5.543 -0.3039 -0.1870 -0.3283
    1W        W31577  18.873   9.815   8.962 -0.0655  0.1970  0.0319
    1W        W31578   8.152  26.965   7.237  0.5342  0.1413 -0.0900
    1W        W31579   3.272  13.375   1.340  0.0368 -0.2586 -0.1944
    1W        W31580   5.443  19.599   3.082  0.0173 -0.1342  0.0695
    1W        W31581   9.378  12.923   8.728 -0.2013 -0.1817  0.0483
    1W        W31582   5.782  28.819   9.050  0.0583 -0.0190  0.1011
    1W        W31583  14.208  20.926   0.638  0.0123 -0.1428 -0.1951
    1W        W31584   2.133  20.932   7.917  0.2579  0.0230  0.2143
    1W        W31585   2.904   3.105   7.867  0.0482  0.0730 -0.0299
    1W        W31586  21.349   2.539   7.991  0.1623 -0.2799  0.1319
    1W        W31587  17.611  25.042   7.922 -0.2646  0.0955 -0.0877
    1W        W31588   1.082   4.461   2.067 -0.1028  0.0635  0.2780
    1W        W31589  22.029  17.420   1.214 -0.2717  0.0965 -0.0025
    1W        W31590  13.702  21.027   0.591 -0.1986 -0.2464  0.0728
    1W        W31591   3.728  14.657   1.800  0.0580 -0.0480  0.1962
    1W        W31592   0.715  23.287   8.345 -0.1109  0.0808  0.3953
    1W        W31593   7.420  21.686   2.760 -0.0054 -0.1426  0.2794
    1W        W31594  26.448  11.032   0.888 -0.1945  0.0287 -0.0176
    1W        W31595  21.635  28.611   6.678 -0.0763 -0.4262 -0.2845
    1W        W31596  13.340  11.232   8.794  0.3449  0.2330 -0.1502
    1W        W31597   6.043  17.046   7.644 -0.2053  0.1938  0.3438
    1W        W31598   2.872  11.892   1.528  0.2009 -0.0014 -0.2932
    1W        W31599   1.712   4.802   9.229  0.1332  0.0724  0.2377
    1W        W31600   1.312   6.183   6.866 -0.3826 -0.1457  0.0796
    1W        W31601  28.169  18.126   2.341  0.0556 -0.1998 -0.3234
    1W        W31602  12.839  20.878   0.314  0.3444  0.1137 -0.0133
    1W        W31603   8.628   2.776   7.069  0.2112  0.0398  0.2485
    1W        W31604   9.560   3.055   1.832  0.0877  0.0762  0.0072
    1W        W31605  25.726  10.923   8.265  0.1592 -0.1863 -0.2757
    1W        W31606  29.121   9.018   6.885  0.0664  0.1358 -0.0591
    1W        W31607  18.560  18.569   8.689  0.0180 -0.1491 -0.0309
    1W        W31608  21.534  19.033   2.403  0.3370  0.0255 -0.0811
    1W        W31609  11.176  10.260   1.610  0.1194  0.0772  0.1840
    1W        W31610  28.198  12.305   9.216 -0.0540  0.0792  0.0768
    1W        W31611  21.088  19.236   0.467  0.1901 -0.1607  0.2069
    1W        W31612   9.443   7.884   1.426  0.0798  0.2502  0.3952
    1W        W31613  14.206   6.472   1.931 -0.1446  0.3454 -0.0028
    1W        W31614  17.922  19.909   6.517 -0.0550 -0.2625 -0.1352
    1W        W31615   5.111   8.842   7.241  0.0451  0.2358 -0.1641
    1W        W31616  16.715   4.958   0.317  0.1989  0.2594  0.0582
    1W        W31617  22.119   1.368   0.503 -0.4376  0.0437  0.0275
    1W        W31618   2.292  14.816   0.088 -0.1562 -0.1442  0.0085
    1W        W31619  22.349  14.331   0.526 -0.0447  0.0470 -0.1984
    1W        W31620  24.919  20.488   6.954  0.3329 -0.0398  0.0989
    1W        W31621  17.127  20.822   9.017  0.0686  0.2392 -0.2154
    1W        W31622  18.363   9.177   1.779  0.0629  0.1202  0.1988
    1W        W31623  18.923  20.627   7.788  0.1032 -0.1704 -0.1062
    1W        W31624  12.642  16.545   2.088  0.1713 -0.0962 -0.1321
    1W        W31625  14.248   0.446   7.931  0.1040 -0.2388 -0.1141
    1W        W31626  10.857   8.375   6.132  0.2888 -0.2684 -0.2307
    1W        W31627   9.807  12.878   9.043 -0.0842  0.0557 -0.1533
    1W        W31628   0.928  21.660   7.241 -0.2653 -0.1857 -0.1295
    1W        W31629  11.672  11.610   6.596  0.1698  0.0930  0.0837
    1W        W31630  27.561  14.195   7.875 -0.1461  0.2829  0.1032
    1W        W31631   7.223  15.045   8.666 -0.1737 -0.0579 -0.0758
    1W        W31632  25.578  11.405   0.106 -0.0182 -0.2393  0.0960
    1W        W31633  10.835   0.756   9.157  0.0637  0.0469 -0.2568
    1W        W31634   2.718  27.410   1.272  0.2117 -0.1094 -0.1781
    1W        W31635  16.450  27.029   2.033  0.2091 -0.0400 -0.3687
    1W        W31636  10.882   4.434   8.989  0.0988 -0.0059 -0.0910
    1W        W31637  24.425  21.600   7.819  0.1480 -0.1436 -0.0937
    1W        W31638  22.917   6.702   8.662 -0.1701 -0.0723  0.0022
    1W        W31639  21.059  14.441   9.360  0.0492  0.0334  0.3475
    1W        W31640  11.955  27.536   1.906 -0.2157  0.1466 -0.1111
    1W        W31641   8.109   4.515   2.113  0.0635  0.0454  0.3361
    1W        W31642  12.302  11.014   1.002 -0.1351  0.0130 -0.3670
    1W        W31643  23.432  22.608   1.778  0.1436  0.0318  0.2130
    1W        W31644  24.386  29.336   0.457 -0.2654  0.3367 -0.2952
    1W        W31645   7.979   9.845   9.030 -0.2883  0.1476  0.0744
    1W        W31646   7.981  20.394   0.007 -0.1238  0.3111 -0.2695
    1W        W31647  25.550  16.381   2.920  0.5899  0.1696  0.2716
    1W        W31648   5.995   9.208   0.541  0.1078 -0.1417 -0.0572
    1W        W31649  23.736   2.936   2.944 -0.0718 -0.2165  0.0114
    1W        W31650  10.685  13.112   7.890  0.0513  0.2179  0.4054
    1W        W31651  27.965   1.913   8.390  0.0161 -0.0909 -0.1310
    1W        W31652  24.766  12.378   1.260 -0.0717  0.0723  0.0280
    1W        W31653  19.111   5.266   9.032  0.0449 -0.2777 -0.0595
    1W        W31654  26.016  25.650   2.282 -0.0922 -0.1618 -0.3319
    1W        W31655  17.410  16.656   9.177 -0.0120  0.1779  0.2647
    1W        W31656   5.291   5.596   8.097 -0.0912 -0.0170  0.1687
    1W        W31657  24.417  18.001   7.353 -0.2410  0.0113 -0.2333
    1W        W31658  24.048  26.266   7.563 -0.1617 -0.0881 -0.1162
    1W        W31659  25.033  18.990   0.562 -0.2991 -0.0685 -0.2430
    1W        W31660   2.291  27.819   6.570  0.3759 -0.2432  0.1630
    1W        W31661  29.058  20.706   8.569 -0.4827  0.2212 -0.0356
    1W        W31662   7.018  21.276   0.122 -0.3394 -0.2156 -0.3215
    1W        W31663  29.587  18.198   1.072  0.0962 -0.1491  0.2321
    1W        W31664   0.451  21.393   8.494  0.0338 -0.2820  0.0797
    1W        W31665  18.174  21.282   6.033 -0.0788 -0.1124 -0.2974
    1W        W31666  10.333   2.839   2.073  0.3203 -0.0274  0.2179
    1W        W31667  17.492   2.333   3.248 -0.1934 -0.2194  0.1730
    1W        W31668   4.347   6.256   2.306  0.0071 -0.1366  0.2918
    1W        W31669   3.963  25.924   6.821 -0.0754 -0.1482 -0.0762
    1W        W31670   7.291  23.228   1.249  0.1765 -0.1974  0.1644
    1W        W31671   6.333  13.757   0.557  0.0704 -0.1846 -0.1436
    1W        W31672  25.613  26.057   9.112 -0.0050 -0.0223  0.0909
    1W        W31673   9.237   7.599   7.732  0.0614  0.0188  0.0437
    1W        W31674   5.334   7.912   7.747  0.0453 -0.1701  0.1834
    1W        W31675  14.727  14.623   2.030  0.2078  0.0906 -0.0603
    1W        W31676   5.516  23.033   1.747 -0.0405  0.1793 -0.0807
    1W        W31677  13.981   1.471   1.124 -0.1396 -0.0572  0.1810
    1W        W31678   9.144  15.831   9.077 -0.0158  0.0039 -0.1113
    1W        W31679  27.233  29.659   0.631 -0.0172  0.1938  0.3078
    1W        W31680   5.111   9.421   2.715 -0.0070 -0.0846  0.0463
    1W        W31681  26.794  11.461   2.605 -0.0966 -0.2664 -0.2109
    1W        W31682  16.254   7.539   8.597  0.0919  0.0523  0.0812
    1W        W31683  17.965  13.206   9.513 -0.1508  0.0886  0.0896
    1W        W31684  20.922   0.208   0.596  0.1070  0.1761  0.2534
    1W        W31685  19.926  29.564   7.014  0.1578  0.2506  0.0486
    1W        W31686  24.964   0.740   3.232  0.0774 -0.2609  0.0948
    1W        W31687   3.544   8.511   9.378  0.0188  0.0338  0.0969
    1W        W31688  22.042  26.518   3.199 -0.3084 -0.0417 -0.0882
    1W        W31689  26.619   6.012   8.509 -0.1026 -0.1654  0.4005
    1W        W31690  16.883  24.440   1.506 -0.2736  0.3109  0.1063
    1W        W31691  27.397  23.582   2.030  0.0827 -0.0148 -0.0665
    1W        W31692  27.653  26.133   8.406 -0.1216 -0.0832  0.1645
    1W        W31693  19.963   6.633   0.650  0.0027  0.2254  0.1478
    1W        W31694  16.803  26.291   7.867  0.1988  0.0131  0.1786
    1W        W31695   5.858  12.431   6.674 -0.1895 -0.0308 -0.2743
    1W        W31696   3.446   6.166   2.250 -0.3996 -0.2894 -0.1396
    1W        W31697  10.563   4.330   2.521  0.2743  0.0951  0.3718
    1W        W31698   3.566   9.163   2.219  0.0214 -0.1454 -0.0442
    1W        W31699  10.156  11.682   7.873  0.2059 -0.4646 -0.0760
    1W        W31700  20.798  18.630   7.024 -0.1512  0.0541  0.3032
    1W        W31701  24.014   3.609   0.196 -0.1399  0.0186 -0.0339
    1W        W31702  26.408   5.299   7.258  0.0666  0.0309  0.2832
    1W        W31703   5.214  13.314   7.036 -0.0144  0.1081 -0.1132
    1W        W31704   1.930   8.998   2.971 -0.1513  0.0877 -0.3527
    1W        W31705   8.912   0.424   7.864  0.0436 -0.0839 -0.2686
    1W        W31706  18.434  27.386   6.032  0.1348  0.1295  0.1705
    1W        W31707  26.111  28.120   8.767  0.2280  0.1383 -0.1052
    1W        W31708  11.662  23.874   8.140  0.1250 -0.1136  0.2468
    1W        W31709  10.241  24.947   0.303 -0.4108 -0.1322 -0.1551
    1W        W31710  17.194   9.147   1.155  0.4541  0.1125  0.2172
    1W        W31711   1.833  18.651   9.230 -0.1582 -0.0800  0.1648
    1W        W31712  21.715  23.679   2.281  0.2992  0.0965  0.2585
    1W        W31713  14.525  24.964   5.446 -0.3242 -0.2672  0.1503
    1W        W31714  19.596  26.384   2.501  0.1264 -0.2258 -0.1161
    1W        W31715  18.855  10.177   1.557 -0.1298 -0.1847 -0.3710
    1W        W31716  28.551  18.460   6.227 -0.0217  0.1072 -0.0203
    1W        W31717   5.810  20.441   0.450 -0.0325  0.0881  0.0231
    1W        W31718   4.583   0.240   0.095 -0.0747  0.2890 -0.3341
    1W        W31719  26.196   1.384   2.010  0.0472 -0.0209  0.0010
    1W        W31720  17.765  15.129   2.091  0.1577 -0.0439  0.0001
    1W        W31721  25.512  10.301   2.266  0.1162 -0.0027 -0.5262
    1W        W31722  20.919   4.910   9.010  0.0746  0.1018 -0.1033
    1W        W31723  17.864  13.397   0.494  0.0353 -0.2743 -0.2657
    1W        W31724   7.663  17.719   8.154  0.0043  0.2107 -0.2941
    1W        W31725  23.725  11.145   0.253  0.2059 -0.0044 -0.0879
    1W        W31726  25.143  15.141   0.603 -0.0400  0.2283  0.3850
    1W        W31727  18.456  17.239   8.557 -0.1529  0.3565  0.1668
    1W        W31728  21.486  28.910   1.664  0.0699  0.2002 -0.0959
    1W        W31729  14.655   6.588   1.724  0.0723 -0.0199  0.3024
    1W        W31730  19.233  18.471   7.896  0.0999  0.0988  0.0256
    1W        W31731  26.603  29.748   7.161 -0.0544  0.0476 -0.0660
    1W        W31732  29.672   1.083   8.187  0.1225  0.1376  0.0816
    1W        W31733  25.186  25.758   8.920  0.0442 -0.2275 -0.1490
    1W        W31734  17.778  13.470   2.024  0.0197  0.0190 -0.2213
    1W        W31735  10.729  16.030   5.879 -0.0190  0.2584 -0.0705
    1W        W31736   5.719  19.740   0.686 -0.2864 -0.2522 -0.2934
    1W        W31737  23.960   8.509   2.641  0.1890 -0.3299 -0.1660
    1W        W31738  20.547  16.758   8.354  0.0705  0.2568  0.4011
    1W        W31739  24.770   1.163   3.018 -0.2125 -0.1054 -0.3558
    1W        W31740   6.004  19.669   9.333  0.1265 -0.0720  0.0670
    1W        W31741  18.394  14.818   8.926  0.1819  0.2015 -0.0061
    1W        W31742   5.361  22.085   8.753 -0.1088 -0.0474  0.2069
    1W        W31743  27.176   2.852   1.902 -0.1136  0.0344 -0.2544
    1W        W31744  10.403   7.258   1.190 -0.0080  0.2185  0.1153
    1W        W31745   3.763  22.495   6.461 -0.0012 -0.4047 -0.1484
    1W        W31746   6.229  22.646   0.090 -0.0096  0.1463 -0.0717
    1W        W31747  15.270  19.815   0.595 -0.0278  0.1262 -0.1573
    1W        W31748  20.424  25.174   5.673  0.1805 -0.2189  0.1145
    1W        W31749   0.856  25.533   7.785  0.1617  0.2393 -0.1455
    1W        W31750   9.981  10.248   0.061  0.2804  0.1843  0.1199
    1W        W31751  14.765  14.402   8.515  0.0529 -0.0131  0.2165
    1W        W31752  16.458  29.473   0.821  0.1374  0.0022  0.1116
    1W        W31753   1.857  13.904   9.179  0.2420 -0.2045 -0.0458
    1W        W31754  18.793   7.773   8.932 -0.0968 -0.2513 -0.1526
    1W        W31755   9.712  22.702   1.534 -0.0880  0.0059  0.0478
    1W        W31756  12.087  10.461   2.487  0.0129  0.3118  0.0831
    1W        W31757  10.088  18.046   8.238 -0.0268 -0.0497 -0.2264
    1W        W31758  11.545   9.858   0.297 -0.1223  0.0942  0.1837
    1W        W31759  22.026  27.503   0.687 -0.1560 -0.1610  0.3367
    1W        W31760  23.063  22.243   1.871  0.1585  0.0348  0.1548
    1W        W31761  23.933  24.076   8.500  0.0052  0.0680 -0.0031
    1W        W31762   0.198  23.798   7.722  0.1225  0.0033  0.2006
    1W        W31763  20.062  20.256   0.904 -0.1670 -0.1613  0.1550
    1W        W31764  25.974   8.556   0.196  0.1402  0.0987  0.2203
    1W        W31765  21.682  13.370   2.051  0.0571 -0.0729  0.0696
    1W        W31766  13.652  29.191   8.544 -0.0849 -0.1652 -0.2841
    1W        W31767  18.838   0.602   8.971  0.3089  0.1739 -0.1190
    1W        W31768  15.059  22.394   1.145 -0.2275 -0.1594  0.2216
    1W        W31769  16.528  19.699   8.415 -0.1978  0.1860  0.1516
    1W        W31770  19.057  11.728   0.014 -0.1608  0.0481 -0.3152
    1W        W31771  24.770  22.399   7.916 -0.3405  0.0952  0.1368
    1W        W31772  17.442  24.211   7.078 -0.0061 -0.0508  0.0582
    1W        W31773   5.375  26.462   8.548  0.1441  0.1786 -0.0295
    1W        W31774  21.008   1.826   3.700  0.2353 -0.1978  0.0009
    1W        W31775  25.270   4.281   8.110  0.1592  0.1373  0.0672
    1W        W31776  18.997  15.780   1.553 -0.1634 -0.1766  0.2261
    1W        W31777   7.920  23.857   0.775  0.2039 -0.3989  0.0565
    1W        W31778   1.172  11.844   0.841 -0.2930  0.1098  0.0094
    1W        W31779  29.773  17.094   2.558  0.1439  0.0144  0.0426
    1W        W31780   2.626  21.039   7.677 -0.2454  0.3680 -0.3733
    1W        W31781  27.486  15.634   1.534  0.0104  0.1327  0.1568
    1W        W31782   6.299  22.354   1.374 -0.0223 -0.2409 -0.2181
    1W        W31783  21.920   4.763   0.926 -0.0143  0.1476 -0.2335
    1W        W31784  15.772  23.803   0.140  0.1687  0.2810  0.0818
    1W        W31785  21.495  17.637   7.665  0.0070  0.0246  0.0097
    1W        W31786  13.283  17.920   1.004  0.2330 -0.1114  0.0990
    1W        W31787  22.472   4.072   8.086 -0.0994 -0.1499  0.0188
    1W        W31788  12.306  10.265   7.407  0.3335 -0.1433  0.2244
    1W        W31789   6.830  14.103   1.352  0.1321 -0.0458  0.0778
    1W        W31790  15.874  26.591   7.805  0.2243 -0.0987  0.3461
    1W        W31791  16.157  15.950   6.658  0.0590 -0.1117 -0.1126
    1W        W31792  21.785  26.855   8.407  0.2240 -0.0845  0.0716
    1W        W31793   1.735  12.827   0.322  0.3185  0.1199 -0.1885
    1W        W31794  17.425  23.450   0.714  0.0211  0.0105 -0.1437
    1W        W31795  20.038   1.733   2.731 -0.1346  0.1268 -0.2778
    1W        W31796  15.915  25.740   0.939  0.0380 -0.2750  0.1086
    1W        W31797   7.398  21.345   6.852 -0.1706  0.1924  0.0779
    1W        W31798  23.586  12.615   1.875 -0.0426 -0.3268 -0.1407
    1W        W31799  14.638   0.647   0.691  0.0097  0.1291 -0.2183
    1W        W31800  13.639   0.865   3.827 -0.0429 -0.0596 -0.1998
    1W        W31801  12.675   5.800   9.310  0.2543 -0.0270  0.1138
    1W        W31802  10.974   7.123   7.218  0.1263  0.0768 -0.1845
    1W        W31803  16.422   0.585   8.874 -0.0207 -0.3212  0.1479
    1W        W31804   2.321   0.713   0.476 -0.0147 -0.0612  0.1356
    1W        W31805   1.216  10.457   1.326  0.0516 -0.2121  0.2444
    1W        W31806   4.439  22.756   7.487 -0.1146  0.0186 -0.2037
    1W        W31807  23.139  11.978   2.087  0.1860 -0.0998 -0.0262
    1W        W31808  19.179  12.457   0.016  0.1151 -0.0855 -0.0305
    1W        W31809  13.370   9.666   7.806 -0.2055 -0.0151  0.0344
    1W        W31810   6.791   5.587   9.298 -0.2414  0.1010  0.0743
    1W        W31811   0.666  23.968   9.227 -0.0122  0.0370  0.1349
    1W        W31812  26.888  15.815   0.229 -0.1117 -0.1376  0.0269
    1W        W31813  26.769  19.794   7.594 -0.5806  0.2445  0.1799
    1W        W31814   0.472   9.165   9.255  0.0365 -0.3925  0.0824
    1W        W31815  25.619  21.774   3.173 -0.0025 -0.0431 -0.0028
    1W        W31816   9.204   4.196   1.277  0.0572 -0.2390  0.0745
    1W        W31817  15.835   3.807   0.355  0.0840  0.1603 -0.0349
    1W        W31818  24.398  28.771   8.124  0.0025 -0.0459  0.1806
    1W        W31819   7.873  20.553   1.000  0.1033  0.1015 -0.1568
    1W        W31820  29.433   8.121   1.950  0.3296  0.1908 -0.0080
    1W        W31821  15.834   7.548   1.095  0.0734 -0.0272  0.0586
    1W        W31822  27.818   7.861   8.008 -0.5403  0.5155  0.1475
    1W        W31823   4.798  28.087   8.615  0.1478  0.0527  0.1101
    1W        W31824   2.831  17.073   7.805 -0.0525  0.0308 -0.2687
    1W        W31825  27.887  25.381   2.593 -0.1231 -0.3081  0.0218
    1W        W31826  27.191  14.939   8.835 -0.0287 -0.2290  0.1339
    1W        W31827   4.715  24.978   7.404 -0.0639  0.0182 -0.0215
    1W        W31828  17.314  28.715   7.881 -0.0485 -0.1462  0.3090
    1W        W31829  24.477  29.305   7.575  0.0050  0.3196  0.2371
    1W        W31830   4.078   3.067   0.995  0.0557  0.0340 -0.0988
    1W        W31831  14.117   4.905   0.370 -0.1535 -0.1039 -0.4031
    1W        W31832  20.206  23.570   0.678  0.2664  0.0028 -0.1269
    1W        W31833  19.660  28.653   2.735  0.2564  0.2799 -0.3588
    1W        W31834  29.100  28.569   8.306 -0.1343 -0.0112 -0.3053
    1W        W31835   1.174   2.687   0.768  0.0722  0.0924  0.1922
    1W        W31836   7.451   8.654   8.523 -0.2068  0.1377 -0.1569
    1W        W31837   2.428  13.885   6.980 -0.4083 -0.0296  0.0723
    1W        W31838   6.076  27.493   7.204 -0.0586  0.1805 -0.0276
    1W        W31839  15.080  15.839   0.289 -0.0477  0.2204 -0.1420
    1W        W31840  28.383   2.539   0.846 -0.3203 -0.3001 -0.2955
    1W        W31841  12.714  11.908   9.516 -0.3468  0.1602  0.3043
    1W        W31842  18.474  21.086   6.392  0.0520 -0.1813  0.2114
    1W        W31843  12.654   4.559   1.967 -0.0918 -0.1017  0.0886
    1W        W31844  13.062   5.512   3.398  0.0249  0.1958  0.1152
    1W        W31845  15.853  26.185   5.983 -0.0934 -0.3792 -0.1998
    1W        W31846  13.070  18.425   6.078 -0.1012 -0.0248 -0.0720
    1W        W31847  23.171  10.517   0.245 -0.1510  0.3096  0.1456
    1W        W31848  24.511   8.519   8.313  0.0691  0.1981  0.0107
    1W        W31849  29.825  18.316   7.755  0.0319  0.0490  0.1331
    1W        W31850   4.702  18.135   1.542 -0.0610  0.0706  0.0320
    1W        W31851  17.005  11.333   0.852 -0.1720  0.0531 -0.1011
    1W        W31852   3.730   1.281   1.367 -0.1038 -0.3618  0.1247
    1W        W31853  22.825  14.075   0.699 -0.2590 -0.0601  0.0190
    1W        W31854  10.582   3.534   7.676 -0.0212 -0.1148  0.2147
    1W        W31855  13.951  27.600   8.282  0.0070 -0.0775  0.0460
    1W        W31856   2.702  23.899   0.193  0.0267 -0.1279 -0.0212
    1W        W31857  23.302  26.065   6.739 -0.0521  0.1502  0.0157
    1W        W31858   0.571  11.865   1.665  0.2033 -0.0332  0.1137
    1W        W31859  16.844   4.326   0.460  0.0541  0.0386  0.0489
    1W        W31860  20.083  12.238   7.774 -0.0450  0.0205 -0.1153
    1W        W31861  17.749  29.779   9.349  0.2625  0.1403  0.1014
    1W        W31862  21.196   1.203   8.284 -0.1553 -0.3174  0.0970
    1W        W31863   9.060   7.409   9.295  0.1066  0.1258  0.0121
    1W        W31864  11.795  16.498   1.973 -0.2112  0.1437  0.2051
    1W        W31865  26.402  26.004   2.236 -0.1254  0.2413 -0.0320
    1W        W31866   3.941   5.386   8.577 -0.2798 -0.0240 -0.3296
    1W        W31867   6.724  14.959   1.985  0.2007 -0.2190 -0.2160
    1W        W31868   9.982  18.820   1.973 -0.2552  0.2802  0.1689
    1W        W31869  14.019  16.805   6.449 -0.2124 -0.5289  0.0773
    1W        W31870  24.695  26.082   1.242  0.1352  0.0598 -0.0231
    1W        W31871  16.115  26.735   8.214  0.3074 -0.3475  0.1581
    1W        W31872   4.986  27.862   0.459  0.1004  0.0485 -0.1067
    1W        W31873  20.181  13.353   0.341  0.4770  0.1475  0.2967
    1W        W31874  16.856   1.096   7.793 -0.2992 -0.0976 -0.0238
    1W        W31875  17.030  13.972   1.700 -0.3905 -0.3233 -0.0396
    1W        W31876   7.505  15.164   2.009  0.1618 -0.2665 -0.0444
    1W        W31877  17.306   8.039   9.108 -0.3110 -0.1825  0.0278
    1W        W31878   9.703   5.518   2.338 -0.1326  0.3261  0.0500
    1W        W31879  18.226  25.564   0.820 -0.0342  0.1814  0.2284
    1W        W31880  13.355   1.693   3.925  0.2141 -0.2789  0.1173
    1W        W31881  10.979  29.816   2.295  0.0080  0.0405  0.1518
    1W        W31882  26.267   7.078   8.855  0.1214 -0.1300 -0.4240
    1W        W31883   8.873  19.723   1.939  0.0673  0.1104 -0.2101
    1W        W31884  25.135  18.314   8.981  0.0463 -0.3065  0.3177
    1W        W31885  27.035   1.767   0.234 -0.0824 -0.0766 -0.1270
    1W        W31886  25.559  17.683   1.129  0.0550  0.3813 -0.1950
    1W        W31887  10.995  17.267   1.360 -0.1860  0.0140 -0.0307
    1W        W31888  14.074   6.753   2.284 -0.0175  0.2172 -0.4097
    1W        W31889  24.479  14.639   1.753  0.0609  0.0804  0.0372
    1W        W31890  10.433   0.250   2.177 -0.3405  0.1950  0.1024
    1W        W31891  15.258  19.979   6.053 -0.4423 -0.1068 -0.1066
    1W        W31892  20.476  21.318   0.886 -0.1106  0.1058 -0.3060
    1W        W31893  22.612   0.143   8.385 -0.1564 -0.2838  0.1486
    1W        W31894  26.327   1.532   2.522  0.0453 -0.1886 -0.1502
    1W        W31895  26.498   3.163   7.317 -0.1963  0.0292 -0.0665
    1W        W31896   4.989   3.924   7.790 -0.0791  0.0840  0.1104
    1W        W31897   5.722  22.330   9.231  0.2112  0.0623 -0.2957
    1W        W31898   6.919  17.950   1.080  0.0005  0.0701 -0.1863
    1W        W31899   1.157  18.216   8.005 -0.0851 -0.0098  0.2772
    1W        W31900   2.701  15.434   6.514  0.1475  0.1601 -0.1366
    1W        W31901  18.784   7.324   0.181 -0.0232 -0.3287 -0.0154
    1W        W31902  13.649  21.548   6.143  0.0794  0.1366 -0.0484
    1W        W31903  20.755   1.446   8.130  0.3551  0.3557  0.1627
    1W        W31904   5.393  29.358   2.167 -0.0076 -0.0807  0.1051
    1W        W31905  11.372  16.518   7.963 -0.1032 -0.0434 -0.3451
    1W        W31906  13.632   0.828   3.343 -0.3030  0.1503  0.0333
    1W        W31907  23.916   8.199   8.232  0.2364 -0.1283  0.1360
    1W        W31908  19.888  28.241   8.459  0.1334  0.3227  0.0289
    1W        W31909   7.146   3.524   3.260 -0.0228  0.0896 -0.2751
    1W        W31910   0.647  12.436   2.421  0.0354 -0.1518 -0.1459
    1W        W31911   3.921   8.694   2.252  0.0266  0.1130  0.1044
    1W        W31912  20.209  11.413   8.243  0.1333 -0.1918 -0.4259
    1W        W31913  16.691   8.360   8.675  0.0408 -0.2496 -0.1308
    1W        W31914   7.554   5.599   8.720  0.1015 -0.1626 -0.2221
    1W        W31915   8.791   7.640   0.696  0.0534 -0.2430  0.3000
    1W        W31916  10.799  13.545   8.101  0.0575 -0.1153  0.0860
    1W        W31917   5.217   7.858   2.513  0.1401  0.0454  0.2836
    1W        W31918   6.092  24.522   6.433 -0.1596  0.0959  0.0027
    1W        W31919   6.703  19.479   9.165 -0.0940  0.0874 -0.0336
    1W        W31920  19.878   5.478   9.066  0.3039  0.1165  0.3931
    1W        W31921   7.281  13.194   1.016  0.0025  0.3919  0.3084
    1W        W31922  14.562  12.422   7.814 -0.3132 -0.0026  0.2758
    1W        W31923   2.831  22.833   0.765  0.1243 -0.2973 -0.3272
    1W        W31924  28.176  12.528   8.696 -0.0443 -0.1541  0.0053
    1W        W31925   0.760  22.550   6.848  0.2168 -0.0926  0.2860
    1W        W31926  26.612  11.023   9.252 -0.2344 -0.1114  0.3843
    1W        W31927   1.348  24.362   5.775  0.1138  0.1204  0.1982
    1W        W31928  25.797  22.253   6.738  0.1787 -0.3607 -0.1501
    1W        W31929   2.028  10.716   7.493  0.1590 -0.4981  0.1260
    1W        W31930  14.535   3.500   2.343  0.1718 -0.1113 -0.3093
    1W        W31931  26.014   3.706   2.125 -0.2349  0.0282 -0.1326
    1W        W31932   0.976   9.998   7.586 -0.1747 -0.0403 -0.0792
    1W        W31933  20.796   3.198   0.449 -0.0332 -0.1403  0.0119
    1W        W31934  19.617   4.624   9.376  0.0454 -0.1502  0.0358
    1W        W31935   8.018  10.585   1.406  0.2843  0.0695 -0.1509
    1W        W31936   2.940  22.861   9.417  0.0707  0.4439 -0.0695
    1W        W31937  17.465  17.906   0.285 -0.2933  0.2556 -0.0896
    1W        W31938  26.235   8.487   1.057 -0.2324  0.0855  0.3247
    1W        W31939  22.187   4.221   0.897  0.1553 -0.1196 -0.1052
    1W        W31940  13.481  16.597   5.558 -0.0954  0.2750 -0.0304
    1W        W31941  26.334  16.316   1.192  0.1050 -0.2611  0.3464
    1W        W31942  22.040  21.702   6.884  0.1533 -0.1669  0.0192
    1W        W31943  27.372   4.899   6.931  0.1194 -0.0859 -0.1194
    1W        W31944  14.561  28.427   7.124 -0.4575  0.1353  0.0685
    1W        W31945  28.206   4.516   7.976  0.0522  0.0274 -0.0218
    1W        W31946  26.490   9.783   8.572 -0.0492  0.1186 -0.0273
    1W        W31947   2.326  20.222   2.799 -0.0716 -0.0489  0.1453
    1W        W31948   4.534  23.597   6.738 -0.4828 -0.3632  0.3502
    1W        W31949   5.406  14.207   8.834  0.1449  0.3799  0.1012
    1W        W31950  23.949   8.613   0.730  0.0857  0.0782 -0.0143
    1W        W31951   0.027  23.306   8.948 -0.3384  0.0907  0.1114
    1W        W31952  13.864   9.792   7.909  0.0459  0.0466  0.3620
    1W        W31953  12.464  28.426   0.129 -0.1056  0.2201  0.0249
    1W        W31954  14.344   1.021   7.102 -0.2821  0.2270 -0.2683
    1W        W31955  18.578   4.195   2.959 -0.0585 -0.0485 -0.0104
    1W        W31956   9.996  23.639   7.428  0.2435 -0.2432 -0.0429
    1W        W31957   0.787  16.134   7.185 -0.2720  0.0739  0.1278
    1W        W31958  21.630  11.923   9.440 -0.1817  0.0028  0.4347
    1W        W31959   3.908  11.982   7.531 -0.0652  0.1772 -0.1521
    1W        W31960  26.887  21.116   0.897  0.2660  0.0447 -0.0745
    1W        W31961  19.451   5.621   3.799  0.0693  0.0997  0.2051
    1W        W31962  25.266  15.754   6.984 -0.2240 -0.0262 -0.4211
    1W        W31963  22.935  26.406   0.825 -0.0114  0.2551  0.0165
    1W        W31964  28.650  17.498   0.034 -0.1624 -0.1370  0.0057
    1W        W31965  19.957   8.835   1.886 -0.4049 -0.1222 -0.0843
    1W        W31966   0.561  24.813   7.569  0.1513  0.0403 -0.0384
    1W        W31967   9.004   2.788   2.432 -0.0671  0.0751 -0.2621
    1W        W31968  21.176  11.005   2.146  0.3293 -0.0588  0.1336
    1W        W31969  28.762  11.778   0.133 -0.2791 -0.1198  0.2030
    1W        W31970  12.035   8.170   2.273  0.1679  0.1849  0.3679
    1W        W31971  26.313  19.333   6.070 -0.0098 -0.2361  0.0401
    1W        W31972   4.464  27.549   6.144  0.1147  0.0209 -0.2995
    1W        W31973  16.294  25.838   9.441  0.0567 -0.2079 -0.0333
    1W        W31974  24.651   3.478   2.105 -0.1572 -0.3232  0.0433
    1W        W31975  20.181  17.620   8.328 -0.2117  0.0770  0.2656
    1W        W31976  28.074   7.367   7.073 -0.2000  0.2611 -0.0521
    1W        W31977   2.605  13.961   2.287  0.1121 -0.1866 -0.1729
    1W        W31978  15.378  21.412   1.797 -0.0605  0.0169 -0.1069
    1W        W31979   0.271   5.729   7.535  0.1744 -0.2447  0.0227
    1W        W31980   1.776   5.816   6.132  0.0590  0.1063  0.0360
    1W        W31981  12.745  16.242   8.554 -0.1918  0.3347 -0.3022
    1W        W31982   2.340  20.470   7.555  0.0167  0.0453 -0.2628
    1W        W31983   5.859  13.158   1.479  0.1310  0.2462 -0.1396
    1W        W31984   3.599   6.177   7.827 -0.0927  0.2631  0.1032
    1W        W31985  22.969  11.297   9.312  0.1783 -0.1954  0.0506
    1W        W31986   5.246  23.401   7.689 -0.0179  0.0951  0.0039
    1W        W31987  22.239   2.434   8.245  0.0837  0.0087  0.1779
    1W        W31988  26.390  27.785   0.795  0.1870  0.0505  0.2833
    1W        W31989  25.518  14.257   1.440 -0.2082 -0.0740 -0.1312
    1W        W31990  29.709   3.329   0.751  0.0668 -0.0981 -0.0444
    1W        W31991  14.941   5.553   1.841 -0.0915 -0.0050  0.3613
    1W        W31992   4.563   3.037   8.957 -0.1193 -0.1896  0.0978
    1W        W31993  11.246  19.758   6.879 -0.0128 -0.6255  0.0910
    1W        W31994  29.570  11.243   2.827 -0.1579 -0.0798 -0.4792
    1W        W31995  13.065  26.588   8.060  0.2923  0.1570  0.3413
    1W        W31996  24.356  24.600   1.237 -0.1699  0.4073 -0.1878
    1W        W31997   1.934   3.200   2.568  0.4518  0.0149 -0.3188
    1W        W31998  16.244   9.802   0.977 -0.2426  0.0456 -0.1067
    1W        W31999  23.256   9.641   8.798  0.2019  0.0064  0.0298
    1W        W32000   0.305  11.154   8.226 -0.0781  0.1631 -0.0634
    1W        W32001  25.730   7.689   2.125  0.2096 -0.1627  0.1891
    1W        W32002  21.321   6.562   1.133 -0.0217  0.1769  0.0139
    1W        W32003   4.005  12.702   7.116 -0.1187  0.0680  0.3870
    1W        W32004  17.147  11.459   9.382 -0.0731 -0.0224  0.0781
    1W        W32005  11.842   4.752   1.594  0.1168 -0.0238 -0.3918
    1W        W32006   4.894   0.346   0.979  0.0166  0.0649  0.0526
    1W        W32007  24.498   3.130   2.526 -0.1175 -0.0653  0.1194
    1W        W32008   9.177   3.526   8.091  0.2094  0.0912  0.3336
    1W        W32009  11.348  21.895   9.073  0.1852 -0.0223 -0.2936
    1W        W32010  11.689  25.901   0.965  0.1064 -0.0432 -0.0430
    1W        W32011   8.048  29.322   2.246  0.1454 -0.0294 -0.0741
    1W        W32012  28.731   8.419   1.276 -0.2022  0.1380 -0.1302
    1W        W32013   1.099  25.651   6.203  0.0614 -0.3102 -0.0960
    1W        W32014  14.223  29.138   7.741 -0.1028 -0.2515  0.0678
    1W        W32015  12.129   4.485   3.593 -0.0153 -0.0241  0.0307
    1W        W32016  17.982   5.852   1.007  0.1690 -0.1903  0.1595
    1W        W32017   0.827  11.281   0.638 -0.1795  0.0666  0.0611
    1W        W32018  13.967  25.298   0.110  0.0335  0.1328 -0.1227
    1W        W32019   9.400  21.379   1.105  0.2313 -0.1573 -0.3039
    1W        W32020  20.277  28.843   0.859  0.1197  0.2694  0.2479
    1W        W32021   1.257  20.675   6.791  0.0331  0.0059  0.0782
    1W        W32022   3.269   2.784   1.937 -0.0275  0.3174 -0.2499
    1W        W32023   4.242  12.626   0.002 -0.0831  0.3347  0.0667
    1W        W32024   2.902  21.079   6.988 -0.4161 -0.0792 -0.0547
    1W        W32025  21.815  18.891   1.610 -0.1269 -0.4027  0.4811
    1W        W32026  17.630  21.977   0.465 -0.1485 -0.1441 -0.1063
    1W        W32027   2.390  15.824   2.867  0.1902  0.1333 -0.1461
    1W        W32028  26.727   3.857   0.527  0.1458 -0.1146 -0.0422
    1W        W32029   1.943   1.047   6.055 -0.0076 -0.1915 -0.0916
    1W        W32030   6.161  11.788   1.223  0.0414 -0.3697 -0.2153
    1W        W32031  12.924  12.225   6.657 -0.0225  0.1568 -0.1329
    1W        W32032  22.749   1.040   8.333  0.0556 -0.0214 -0.3965
    1W        W32033  16.632  28.216   6.762  0.0687 -0.3141  0.0473
    1W        W32034  13.406  19.115   6.683  0.0686  0.0574 -0.0122
    1W        W32035  22.107  16.844   2.070  0.1449 -0.0403  0.0615
    1W        W32036   1.440  14.581   0.338  0.0420 -0.2217 -0.1626
    1W        W32037  20.391  22.965   7.726 -0.1053  0.0196  0.1043
    1W        W32038  14.259  18.199   6.305 -0.1219  0.1604 -0.1197
    1W        W32039  20.680  20.364   6.505 -0.1562 -0.0711 -0.0170
    1W        W32040  18.118  20.495   1.442  0.1414  0.0830  0.2493
    1W        W32041   8.600  29.450   3.457 -0.0400  0.1872  0.0443
    1W        W32042  11.361  28.805   0.584  0.3521 -0.2388  0.1822
    1W        W32043  15.026  24.456   0.011 -0.3386 -0.0999  0.2707
    1W        W32044  19.964  18.114   9.514 -0.0457 -0.3522  0.0487
    1W        W32045   9.448  14.259   0.681  0.1697 -0.0738 -0.2400
    1W        W32046  29.816  27.361   9.467 -0.0016 -0.1660  0.0477
    1W        W32047   7.560  12.160   6.123 -0.3506 -0.0738 -0.0511
    1W        W32048   2.033  14.240   6.914  0.0457 -0.2350 -0.1008
    1W        W32049   7.733   2.954   8.887  0.0425 -0.1207 -0.0803
    1W        W32050  20.291  22.736   6.744  0.1256  0.1254  0.5140
    1W        W32051  16.164   0.500   1.115  0.0716  0.1688 -0.1332
    1W        W32052  24.587  17.719   1.253 -0.1750 -0.1052 -0.0437
    1W        W32053   8.289  11.055   8.416  0.2319  0.0396 -0.2367
    1W        W32054   6.654   8.047   1.806 -0.1226 -0.0065 -0.1014
    1W        W32055   3.801   7.292   8.899  0.1951  0.1281  0.2806
    1W        W32056   5.420   9.166   0.435  0.0892 -0.2448  0.0862
    1W        W32057  27.301  10.584   9.071 -0.1105  0.0790 -0.2188
    1W        W32058  21.089   6.028   0.890  0.0124 -0.2724 -0.2090
    1W        W32059  25.474  27.500   2.214  0.0661  0.0445  0.1304
    1W        W32060   6.354   8.715   8.073  0.4401 -0.0486  0.4020
    1W        W32061   7.137  12.014   6.391  0.5028 -0.1093 -0.2077
    1W        W32062   6.382  26.078   9.308  0.4955  0.1403 -0.0005
    1W        W32063  12.034  15.769   8.918  0.2535  0.2175 -0.2612
    1W        W32064  25.243   0.815   2.754 -0.0034  0.2409 -0.0366
    1W        W32065  19.092  14.313   2.433 -0.0848 -0.2839 -0.2052
    1W        W32066   9.843   5.235   3.943  0.0968 -0.2125 -0.1609
    1W        W32067  20.335  25.618   8.177 -0.2112  0.0041 -0.0343
    1W        W32068   5.740  26.425   5.474 -0.0687 -0.1126 -0.2028
    1W        W32069   3.878   5.222   6.145  0.1038  0.1148 -0.0597
    1W        W32070   6.647   8.580   1.878 -0.0084  0.1761 -0.1390
    1W        W32071  28.015   1.707   1.346 -0.0857  0.0054  0.2228
    1W        W32072   4.467   4.757   1.055 -0.2064 -0.2413 -0.0820
    1W        W32073   9.993   8.337   6.866  0.0364 -0.3473  0.1752
    1W        W32074   7.571  12.952   7.634  0.3805 -0.0389 -0.0126
    1W        W32075  14.188  12.956   8.592  0.1696 -0.0896  0.1535
    1W        W32076  12.221  25.989   6.531  0.0848  0.0565 -0.1760
    1W        W32077   1.881   5.075   7.402 -0.0730  0.0020  0.0638
    1W        W32078  20.656  17.791   8.188 -0.2347  0.1308  0.0093
    1W        W32079  21.371  14.042   8.374 -0.0559 -0.4771 -0.0514
    1W        W32080   0.033  13.349   0.027  0.1666 -0.2566 -0.0072
    1W        W32081  10.473  11.289   1.661 -0.3197 -0.3376 -0.4482
    1W        W32082   5.919   4.194   7.841  0.1964  0.0967  0.0267
    1W        W32083  23.809  15.534   0.835  0.0778  0.0043  0.0181
    1W        W32084  28.267  20.234   3.027 -0.1877 -0.0799  0.0443
    1W        W32085  17.291  22.463   5.400 -0.0320  0.3073  0.2689
    1W        W32086  27.127  29.265   9.282  0.0656 -0.3071  0.0586
    1W        W32087  21.117  23.680   7.465  0.0432 -0.1245 -0.1671
    1W        W32088  14.881   8.777   0.566 -0.1524  0.0763 -0.0202
    1W        W32089  12.900   4.099   1.958 -0.0901  0.3979 -0.0837
    1W        W32090  13.355  21.344   8.059  0.0623 -0.0676 -0.2350
    1W        W32091  28.308  27.737   9.109 -0.3889  0.2047  0.0774
    1W        W32092  15.514  23.856   7.243 -0.0705  0.0013  0.2525
    1W        W32093   6.091   6.621   7.425 -0.2465  0.0828 -0.0073
    1W        W32094  29.314  10.161   9.522  0.0838 -0.1478 -0.2094
    1W        W32095  11.420  19.864   9.388  0.0406  0.1446  0.0371
    1W        W32096  28.384   4.731   1.000  0.2243  0.1730  0.4033
    1W        W32097   4.243   4.578   8.680 -0.1280  0.0081  0.1171
    1W        W32098   8.475  15.107   6.657 -0.1599 -0.0380  0.2153
    1W        W32099  18.965  10.728   8.246 -0.2761  0.1149 -0.0416
    1W        W32100   2.865  19.491   0.192  0.2131 -0.0262  0.0274
    1W        W32101  23.480  17.727   8.513 -0.0674 -0.0605 -0.3694
    1W        W32102  16.568   3.827   3.185  0.0734  0.3528 -0.3928
    1W        W32103  10.712   0.886   0.981 -0.0173  0.2049 -0.1883
    1W        W32104  14.644  16.620   8.746 -0.0275  0.0361 -0.1569
    1W        W32105  14.232  11.200   9.046  0.4562 -0.0785  0.1262
    1W        W32106  28.521   9.736   1.853  0.2822 -0.2967  0.1841
    1W        W32107  22.867  18.446   1.870  0.2782 -0.0530  0.0506
    1W        W32108  25.517  13.644   1.650  0.0318 -0.0136 -0.1767
    1W        W32109   6.365  17.076   2.449 -0.0248  0.1531  0.0982
    1W        W32110   3.669   5.563   9.057 -0.0114 -0.2696 -0.2101
    1W        W32111  20.436   1.952   2.989  0.2147 -0.1838 -0.0572
    1W        W32112   1.612   7.931   0.226  0.0849 -0.1609  0.0764
    1W        W32113  23.762  15.967   1.556  0.4766  0.0104 -0.2288
    1W        W32114  15.102  26.958   2.746 -0.1821  0.4453  0.1372
    1W        W32115  24.518  10.612   8.949 -0.0167 -0.2829  0.0364
    1W        W32116  22.487  17.441   0.588 -0.0309 -0.0519 -0.0317
    1W        W32117  28.954   4.526   9.299 -0.0309 -0.0885  0.2161
    1W        W32118  12.341  16.612   7.080  0.0173  0.1309  0.0866
    1W        W32119   9.798   0.164   2.863 -0.0676  0.2813 -0.3037
    1W        W32120  24.287   3.804   0.643  0.3051  0.1860  0.0610
    1W        W32121   5.039  24.839   5.344  0.2575 -0.0884  0.1479
    1W        W32122   8.220  12.983   7.446 -0.1253  0.0512  0.1640
    1W        W32123   3.344   7.393   7.885  0.0891  0.0990  0.3934
    1W        W32124  12.149  20.112   0.168 -0.2081  0.2607 -0.1921
    1W        W32125  29.854  16.010   9.193  0.0470 -0.2515  0.0894
    1W        W32126  26.908  17.892   0.810  0.0914 -0.1533 -0.1033
    1W        W32127  16.686  24.066   8.165  0.1495  0.0340 -0.3035
    1W        W32128   2.398   1.785   6.009 -0.2580  0.0919 -0.0790
    1W        W32129   2.560  25.473   6.466 -0.1707  0.3197  0.1829
    1W        W32130   4.791  17.291   8.025  0.2838  0.3578 -0.0071
    1W        W32131  20.339   5.381   3.922  0.1504  0.0230  0.0725
    1W        W32132  18.229  29.579   1.902  0.1145  0.3514  0.0572
    1W        W32133  19.089  24.455   8.237  0.3252 -0.1899  0.0422
    1W        W32134   3.388   7.289   2.772  0.4211  0.0713 -0.1677
    1W        W32135  15.569  17.457   7.456  0.1679  0.1220  0.1400
    1W        W32136   5.509   7.706   3.268 -0.0481 -0.0854  0.0604
    1W        W32137   5.983  18.672   7.717  0.1248 -0.0791  0.1714
    1W        W32138  27.049   0.648   7.400  0.0048  0.1663 -0.1292
    1W        W32139  22.127   5.232   0.881 -0.0100 -0.2282 -0.3455
    1W        W32140   1.063   8.557   1.353 -0.1404 -0.0068 -0.1797
    1W        W32141  16.157   2.977   1.080 -0.0884 -0.2191 -0.3853
    1W        W32142  11.622   1.919   7.731 -0.1228 -0.0319 -0.4314
    1W        W32143  26.474   7.510   9.297  0.0524  0.1204  0.1673
    1W        W32144  18.025  21.813   5.371 -0.1547  0.2281 -0.2204
    1W        W32145  21.913   8.727   7.719 -0.1772 -0.0724 -0.1778
    1W        W32146  24.748   0.234   0.608 -0.1659  0.0848 -0.3868
    1W        W32147  18.223  14.317   0.106 -0.1858  0.2108 -0.1307
    1W        W32148   1.325  19.036   6.073  0.0593 -0.0339  0.3431
    1W        W32149  28.710  24.208   3.037  0.0752  0.1121 -0.1930
    1W        W32150   0.345  11.568   2.038  0.2570 -0.0789  0.0647
    1W        W32151   3.633   5.684   1.922  0.1396  0.3864 -0.2240
    1W        W32152  28.431  11.070   7.826  0.2298 -0.1589  0.0779
    1W        W32153   8.614   3.402   7.086 -0.0977 -0.1110 -0.1552
    1W        W32154   5.334  14.041   7.543  0.3725  0.0220 -0.0077
    1W        W32155  22.581  17.927   6.759 -0.1795  0.2670  0.0181
    1W        W32156  18.437  29.381   2.341  0.0692  0.0517 -0.1905
    1W        W32157  10.585  16.202   8.257  0.1210  0.0561 -0.0968
    1W        W32158  25.585  22.227   9.356 -0.1135 -0.2798  0.0060
    1W        W32159  14.816  20.106   8.575  0.1677 -0.0338 -0.3584
    1W        W32160   8.822   6.633   2.395 -0.3802  0.1947  0.1464
    1W        W32161   6.221  18.541   0.730  0.1546  0.2163 -0.0466
    1W        W32162  23.836  14.965   7.739 -0.3684 -0.1788  0.0472
    1W        W32163  23.377   2.406   0.513  0.3284 -0.0452 -0.0016
    1W        W32164  14.675  10.112   0.123  0.0953 -0.1251 -0.2008
    1W        W32165  27.119   1.701   2.234 -0.1712  0.2155 -0.0216
    1W        W32166  22.491   0.088   2.865 -0.1307 -0.1292 -0.3568
    1W        W32167  29.145   5.050   9.469  0.2593  0.1737  0.0521
    1W        W32168  26.494  13.313   7.749  0.0597  0.0406  0.0454
    1W        W32169  25.044  23.117   1.577  0.4342 -0.0677 -0.0317
    1W        W32170  22.081  29.207   7.315 -0.1180  0.3194  0.1863
    1W        W32171  25.280  27.699   1.242 -0.5555 -0.1038 -0.0655
    1W        W32172  26.457  19.946   8.657  0.1598 -0.0899  0.1371
    1W        W32173   9.095  13.800   2.799  0.0605  0.1595 -0.1585
    1W        W32174   3.049  11.569   7.630  0.2185  0.5234 -0.1255
    1W        W32175   1.974   2.589   7.639  0.1412  0.0278 -0.0542
    1W        W32176  21.393  22.019   8.865  0.0791  0.1665  0.1558
    1W        W32177  22.127   4.191   0.383  0.0132  0.2424 -0.2201
    1W        W32178  14.939   2.862   8.589 -0.1338  0.0390 -0.0050
    1W        W32179   3.543  11.570   8.539  0.0583  0.3367  0.1868
    1W        W32180  19.924  14.296   1.826 -0.2367 -0.1734  0.1153
    1W        W32181   9.754  21.372   6.628  0.2826  0.2421  0.0933
    1W        W32182  13.287   1.480   1.988  0.1996  0.0974 -0.0439
    1W        W32183  27.431   6.657   6.819 -0.0317  0.2198 -0.0478
    1W        W32184  11.534  21.394   8.359  0.0180  0.1520  0.0863
    1W        W32185  27.211  29.627   6.276  0.0370 -0.0050  0.0940
    1W        W32186  11.635  14.775   8.433 -0.2996  0.0040 -0.0201
    1W        W32187  24.556   7.918   3.648 -0.1707  0.2794 -0.1869
    1W        W32188   9.945   9.951   0.473  0.0729 -0.0035 -0.1003
    1W        W32189   4.300  18.980   7.247 -0.0490  0.1010  0.3259
    1W        W32190   0.066  28.077   1.931  0.0812  0.2842 -0.0752
    1W        W32191   2.557  19.213   8.016  0.1351 -0.0935 -0.2459
    1W        W32192  15.417  13.234   7.397  0.2352 -0.0911  0.1398
    1W        W32193  17.732  19.490   8.838  0.0025 -0.2770 -0.1098
    1W        W32194  21.060  16.016   0.246  0.1114  0.3046 -0.2729
    1W        W32195  22.533  27.824   2.220  0.0372 -0.2106  0.0197
    1W        W32196  20.406  15.241   9.352  0.1916  0.0124 -0.0006
    1W        W32197  18.230   2.948   3.523 -0.3790 -0.0014  0.3669
    1W        W32198  20.414  28.017   2.494  0.3870 -0.0903  0.2327
    1W        W32199   1.791   1.164   1.507  0.3273 -0.0494 -0.0024
    1W        W32200  11.864   2.026   8.372  0.1848 -0.1028  0.2544
    1W        W32201  10.080  20.357   0.553 -0.1480  0.1958  0.3026
    1W        W32202   8.954  17.179   1.721  0.4303  0.0338  0.0303
    1W        W32203  13.975   7.262   1.311  0.0134 -0.0293  0.1146
    1W        W32204  16.203   2.495   8.121 -0.3281  0.0942  0.0385
    1W        W32205  20.037   1.862   9.417 -0.0837 -0.1856  0.0306
    1W        W32206   8.012  17.493   9.219  0.1629  0.0281  0.0646
    1W        W32207  18.430  23.719   0.668 -0.1282  0.0793  0.3394
    1W        W32208   4.061  26.672   7.199 -0.0400 -0.0654 -0.0268
    1W        W32209  12.905  26.251   9.091  0.0638 -0.0806 -0.0583
    1W        W32210   7.196  18.222   1.499  0.3402 -0.2342  0.2949
    1W        W32211  13.731   3.752   3.369  0.1296  0.1577  0.1348
    1W        W32212   6.953  26.449   0.881  0.0507 -0.2474  0.3451
    1W        W32213  13.446  26.417   8.461  0.0935  0.0731 -0.0885
    1W        W32214  22.483  11.182   2.085  0.2792  0.1546  0.0878
    1W        W32215  26.763  27.805   9.024 -0.1404  0.0160 -0.1024
    1W        W32216  18.702   2.193   0.477 -0.0578  0.3753 -0.1617
    1W        W32217  20.051  12.211   9.302  0.0211  0.0192 -0.0815
    1W        W32218  15.940  18.421   6.432  0.3055  0.0327 -0.0065
    1W        W32219  22.439  22.924   8.256  0.4537  0.0738  0.0995
    1W        W32220  20.295   5.785   2.611 -0.1475  0.1497 -0.0822
    1W        W32221  11.929  10.653   2.063  0.1803 -0.2908 -0.0695
    1W        W32222  14.358   1.610   8.904 -0.0053 -0.1045  0.1101
    1W        W32223   0.215  24.863   6.546 -0.1318  0.1494 -0.1485
    1W        W32224  12.802   2.713   1.257 -0.0897 -0.1138  0.1316
    1W        W32225  21.524   2.788   0.977  0.1384  0.1261 -0.1507
    1W        W32226  16.662  25.654   7.146 -0.2053  0.1438 -0.0064
    1W        W32227  19.579  16.725   2.036  0.2075 -0.0820 -0.0604
    1W        W32228  27.486  22.243   9.423 -0.1770 -0.0446  0.1127
    1W        W32229  27.363  27.329   2.010  0.1530  0.0028 -0.3123
    1W        W32230  18.833  17.281   8.979  0.2169 -0.1764  0.0956
    1W        W32231  14.639  17.221   2.293 -0.2068 -0.0918 -0.1677
    1W        W32232  22.440  22.518   7.880  0.1026  0.1920  0.0993
    1W        W32233  12.670  15.064   7.381 -0.1766  0.2969  0.2727
    1W        W32234  17.500  26.909   8.023  0.0481  0.3276  0.1127
    1W        W32235  16.065   1.009   4.273 -0.1660  0.3390 -0.0369
    1W        W32236  17.501  24.656   6.530  0.3069  0.3067 -0.0549
    1W        W32237   9.764   5.563   2.813  0.3154 -0.0460 -0.3133
    1W        W32238  15.214  10.114   3.127  0.1715 -0.1766  0.1923
    1W        W32239  12.675  18.090   2.486 -0.1740  0.1672 -0.0801
    1W        W32240  21.736  13.547   9.004 -0.0473  0.1570 -0.0065
    1W        W32241  25.798   0.808   7.984  0.0610  0.1721 -0.2587
    1W        W32242  18.054  19.549   0.617 -0.0453  0.0438  0.0829
    1W        W32243   7.258  19.736   1.408  0.2486  0.2260 -0.0174
    1W        W32244   8.796  29.150   0.670  0.1080  0.1056  0.0856
    1W        W32245  14.746  17.613   7.295 -0.1041 -0.0819  0.0568
    1W        W32246  21.212  11.824   9.119  0.0055  0.1539  0.2565
    1W        W32247  13.529   4.198   0.305 -0.2861 -0.1158 -0.0191
    1W        W32248   3.671   2.349   2.643  0.0690  0.0007 -0.3562
    1W        W32249   7.280   7.051   1.374 -0.1313 -0.1154  0.0429
    1W        W32250   2.344  11.638   7.615  0.2242  0.1028 -0.3563
    1W        W32251  11.320   2.847   2.772  0.2048 -0.4310 -0.1232
    1W        W32252   8.291  18.456   1.179 -0.0888  0.2592 -0.0122
    1W        W32253  24.363   4.043   7.607  0.0956 -0.2400  0.0444
    1W        W32254  25.167   2.847   7.606 -0.1419  0.1592 -0.1002
    1W        W32255   6.901  24.086   1.658 -0.0346 -0.2059 -0.1783
    1W        W32256  12.012   2.493   8.401 -0.1195  0.1270 -0.0676
    1W        W32257  16.461  10.609   1.190 -0.1126  0.0534  0.1906
    1W        W32258  14.642   6.101   9.429 -0.0038 -0.0079 -0.1397
    1W        W32259  15.161  21.229   7.966  0.0178 -0.1744 -0.0995
    1W        W32260  10.035   5.642   9.420 -0.2269  0.0107 -0.2228
    1W        W32261  27.621  19.419   2.268  0.0922  0.0178  0.1320
    1W        W32262   2.188  19.642   1.273 -0.2458  0.1411 -0.0663
    1W        W32263  12.904  28.991   7.998  0.0496 -0.0590  0.0333
    1W        W32264  26.371  27.173   7.959 -0.3975 -0.1376  0.2828
    1W        W32265   7.269  28.993   2.255  0.0504  0.0669  0.0651
    1W        W32266  25.130  21.859   8.639  0.2000  0.4223 -0.3753
    1W        W32267  26.295  20.674   6.094  0.1872  0.0893 -0.0514
    1W        W32268  19.097  15.968   8.783  0.3601 -0.1660  0.2211
    1W        W32269  16.717   0.137   8.907  0.0961  0.0666  0.2798
    1W        W32270  26.413  20.016   7.115 -0.1340  0.1649  0.1932
    1W        W32271   6.903  20.110   1.391 -0.0785  0.0700  0.1517
    1W        W32272  27.211  12.219   2.302  0.0536 -0.1337 -0.1529
    1W        W32273   0.967  25.948   7.940  0.0017  0.1122  0.3770
    1W        W32274  23.962  16.883   0.559  0.4504 -0.0967  0.1569
    1W        W32275   7.258  25.306   9.378 -0.1085  0.0107  0.2397
    1W        W32276   3.387   5.337   8.649 -0.1685 -0.1442 -0.1610
    1W        W32277  27.604  11.737   6.710  0.3414  0.0531  0.0841
    1W        W32278   1.330  14.965   7.993 -0.1507 -0.0555  0.0142
    1W        W32279   6.553   3.536   8.232  0.1860  0.0836  0.0539
    1W        W32280  17.961  15.577   0.881  0.0138  0.0787  0.0564
    1W        W32281  10.419  17.469   7.022 -0.2682  0.4373  0.0318
    1W        W32282  28.812  24.214   8.498 -0.1506 -0.0657 -0.1250
    1W        W32283   1.829  12.973   7.168  0.1174 -0.2877  0.0073
    1W        W32284   0.514   7.166   1.833 -0.2729  0.1625 -0.0478
    1W        W32285   0.823  14.005   2.103  0.0555  0.0413  0.0336
    1W        W32286  11.261   6.834   2.824  0.1286 -0.0862 -0.1100
    1W        W32287  13.211  21.344   6.584 -0.3602 -0.2868  0.1179
    1W        W32288  28.515  28.908   7.929  0.1079 -0.0582  0.0598
    1W        W32289  12.146  19.386   7.206  0.0548  0.2236 -0.3140
    1W        W32290  15.348  28.598   6.941 -0.0685  0.1957  0.2318
    1W        W32291  12.994   7.263   9.225  0.0403 -0.0194 -0.0162
    1W        W32292  26.579  23.943   2.621  0.0970 -0.2452 -0.1634
    1W        W32293   6.665  17.221   1.514  0.1608 -0.1765  0.2632
    1W        W32294  13.589  18.026   6.936 -0.1441  0.5132  0.2858
    1W        W32295   4.971  26.318   1.018 -0.4084 -0.2817 -0.0335
    1W        W32296  25.158  23.643   8.654 -0.0956 -0.1632  0.1253
    1W        W32297   5.462   5.023   9.438 -0.3128 -0.0196 -0.0916
    1W        W32298   2.507   1.110   0.148  0.1643  0.2305  0.0001
    1W        W32299  25.615  13.075   1.587 -0.1561  0.0182 -0.1480
    1W        W32300  16.889   1.678   9.374  0.2955 -0.0846  0.0712
    1W        W32301  16.127  27.212   7.802 -0.2829  0.3767 -0.1542
    1W        W32302  13.797  27.194   2.200  0.0804  0.0010 -0.2059
    1W        W32303  14.188  13.864   0.764  0.2098 -0.0291  0.2561
    1W        W32304  24.814  17.842   1.690 -0.0808 -0.0453 -0.1875
    1W        W32305   0.572   3.253   9.115 -0.0743  0.2160  0.2593
    1W        W32306  22.273  25.350   1.893  0.0082 -0.1899 -0.1246
    1W        W32307   3.519   0.573   7.800 -0.0575  0.0152  0.4517
    1W        W32308  22.571  21.164   7.349 -0.1524  0.0124 -0.0854
    1W        W32309  20.229  28.367   1.070  0.0691 -0.1074  0.2282
    1W        W32310  26.446   9.360   2.004 -0.1035 -0.2001  0.0331
    1W        W32311  10.754  16.532   0.420  0.0336 -0.2681 -0.1296
    1W        W32312  24.296  12.766   0.450  0.2751  0.0869  0.2825
    1W        W32313  16.172  12.769   8.348 -0.0459  0.6591  0.2332
    1W        W32314   6.835   9.481   7.957  0.1484  0.2496 -0.2769
    1W        W32315  15.668  16.213   7.793  0.0210 -0.1369  0.1134
    1W        W32316  15.894  16.396   9.323  0.1794 -0.0505 -0.1470
    1W        W32317  23.394   9.597   7.912  0.1247 -0.1700  0.2424
    1W        W32318  24.785   8.158   9.239 -0.0599  0.3571  0.0602
    1W        W32319  28.145  23.803   8.054 -0.2246 -0.1868  0.0009
    1W        W32320   6.288   6.911   7.771 -0.0619  0.0413 -0.0995
    1W        W32321  12.625   6.613   2.751  0.0747  0.0949  0.2054
    1W        W32322  16.205   4.388   4.188 -0.3435 -0.1162  0.1338
    1W        W32323  14.527   2.585   9.336  0.1696  0.0626 -0.0853
    1W        W32324  26.938   8.170   8.316  0.2533  0.1192 -0.1470
    1W        W32325  17.276  19.370   8.667 -0.1764 -0.0853  0.0129
    1W        W32326   4.961  16.362   3.203  0.3000  0.0932  0.0201
    1W        W32327  17.887   9.931   8.335  0.0151  0.3865  0.0548
    1W        W32328   2.611   6.488   6.966  0.2193 -0.2027 -0.6362
    1W        W32329   3.662   6.892   0.829 -0.2537  0.0574 -0.1119
    1W        W32330  22.133   7.473   9.096  0.2897  0.1142 -0.0475
    1W        W32331   3.947  28.435   1.058 -0.2335  0.2867 -0.1200
    1W        W32332  11.539  10.441   9.042 -0.0445 -0.3099  0.1828
    1W        W32333  16.349  16.303   7.015 -0.0909 -0.0478 -0.0414
    1W        W32334  16.380  25.528   0.360  0.0146  0.0728 -0.3708
    1W        W32335   4.435  11.368   6.881  0.1307 -0.1305 -0.1468
    1W        W32336  27.145   6.139   0.901  0.0400 -0.0575 -0.1688
    1W        W32337  18.154   0.348   9.329 -0.2292  0.2145  0.1218
    1W        W32338   2.405   7.006   6.683 -0.0398 -0.1647 -0.0933
    1W        W32339  13.006   9.272   2.185  0.1594 -0.2626  0.1386
    1W        W32340   0.329  25.204   9.226  0.0803  0.1901  0.2398
    1W        W32341  15.262  20.697   5.203  0.0580  0.1233  0.1786
    1W        W32342   9.515  15.294   8.480  0.0192  0.0449 -0.1468
    1W        W32343  28.403  23.753   9.282 -0.1322  0.1064 -0.0505
    1W        W32344  29.705  21.239   1.068  0.1470  0.2204 -0.0313
    1W        W32345   4.897  21.727   8.490 -0.0911 -0.0154  0.0455
    1W        W32346  24.878  16.859   1.782 -0.0885 -0.0336  0.2170
    1W        W32347  25.055  29.573   2.027  0.2621 -0.1203 -0.1083
    1W        W32348  19.842  21.532   8.925  0.2229 -0.1102 -0.2110
    1W        W32349  20.224  21.171   7.504  0.1818 -0.0609  0.0295
    1W        W32350  18.664   2.076   3.983 -0.0035  0.2820 -0.1972
    1W        W32351  23.804  13.262   2.393 -0.3144  0.0337 -0.2116
    1W        W32352  27.147  23.918   6.458  0.1190 -0.0146  0.0716
    1W        W32353   2.075  23.593   7.219  0.0119 -0.0176  0.0903
    1W        W32354  26.256   3.476   6.957  0.0270 -0.1020  0.0245
    1W        W32355  19.788  26.498   9.328  0.1968 -0.2721 -0.2226
    1W        W32356  24.338  19.347   1.785  0.2225  0.0905 -0.3151
    1W        W32357  13.027   7.217   1.823 -0.3308 -0.2261 -0.2357
    1W        W32358   5.589   1.111   0.276 -0.2694 -0.1274 -0.1093
    1W        W32359   9.723  27.802   1.805 -0.0207 -0.1523  0.1570
    1W        W32360  18.950  23.692   7.724 -0.2301 -0.1940 -0.1120
    1W        W32361   6.552   4.121   2.679 -0.1934  0.2394 -0.2155
    1W        W32362   6.553  23.330   2.544 -0.2469 -0.0459  0.1195
    1W        W32363  19.092  17.174   7.717 -0.0604 -0.1280 -0.3638
    1W        W32364  16.282   4.716   0.568  0.0633 -0.2891  0.0001
    1W        W32365  15.902   5.312   9.303 -0.0915  0.0679 -0.1469
    1W        W32366  18.737   8.817   2.117  0.0113  0.1471  0.0176
    1W        W32367  10.310  28.907   9.022  0.2239 -0.0479  0.0228
    1W        W32368   6.654  20.131   1.814 -0.2344 -0.0276  0.2257
    1W        W32369  13.206  12.180   9.382  0.0466  0.0859  0.0906
    1W        W32370   8.008   0.212   2.733 -0.1093 -0.1450  0.0854
    1W        W32371  13.078   8.250   1.490 -0.1080  0.2133 -0.2262
    1W        W32372  27.221  12.973   1.612  0.2275  0.3425 -0.0714
    1W        W32373  24.344  12.486   9.278  0.2426 -0.2516 -0.0130
    1W        W32374   3.057  12.822   8.949 -0.0825 -0.2651 -0.0731
    1W        W32375   9.503   8.616   6.896  0.1785  0.0585  0.0337
    1W        W32376   7.230  24.403   6.742 -0.1406  0.1564  0.0531
    1W        W32377  10.222  13.042   7.744 -0.0619 -0.1225 -0.1404
    1W        W32378  27.090  15.899   7.321 -0.1606 -0.0380  0.2141
    1W        W32379  28.216  10.735   0.852 -0.1532  0.0854  0.0894
    1W        W32380  10.175  20.680   0.153 -0.0621 -0.1141  0.2436
    1W        W32381   3.140  23.721   1.609  0.4411 -0.1584  0.2395
    1W        W32382  15.200  24.277   7.317  0.2707  0.1535  0.1865
    1W        W32383  14.331  29.123   8.281 -0.1793 -0.0755 -0.1507
    1W        W32384  28.531  15.709   7.288 -0.2236  0.3340  0.3876
    1W        W32385   0.564  29.541   9.258 -0.0642  0.1232 -0.1576
    1W        W32386  23.462  19.162   0.039 -0.0250  0.0297  0.2865
    1W        W32387   5.149  27.336   8.771 -0.0176  0.1577  0.2223
    1W        W32388  18.301  15.067   7.595 -0.1463 -0.3892 -0.0486
    1W        W32389  10.180  18.481   6.946  0.0284 -0.1510 -0.2188
    1W        W32390   4.240   2.301   7.817 -0.0934  0.2831  0.3466
    1W        W32391   4.122  22.849   7.966 -0.1037 -0.0674  0.1307
    1W        W32392   3.971   1.524   1.785  0.0506  0.0388 -0.0028
    1W        W32393  20.265   0.872   0.645  0.1225 -0.1059 -0.1519
    1W        W32394  10.041  18.853   5.835 -0.0125  0.2010  0.1375
    1W        W32395  20.283  20.449   7.895  0.1506 -0.2789  0.1190
    1W        W32396  16.480  29.840   0.442  0.1841  0.1306 -0.2302
    1W        W32397   7.557  15.781   7.243  0.2176 -0.0251  0.2652
    1W        W32398   1.894  19.933   8.257 -0.0013  0.2706  0.0046
    1W        W32399  26.199  10.339   7.787 -0.0350 -0.0805 -0.0056
    1W        W32400  20.932  10.778   9.437 -0.0416  0.1800 -0.0228
    1W        W32401  27.660   0.357   8.917  0.1548  0.0491  0.0577
    1W        W32402  28.999  26.410   7.119 -0.1010  0.0759 -0.0848
    1W        W32403  23.368  18.730   1.229  0.2283  0.1459 -0.2278
    1W        W32404  11.328  28.811   1.116 -0.1983  0.2816 -0.1926
    1W        W32405  21.012  26.401   6.918  0.1914  0.3879 -0.1770
    1W        W32406  10.538   5.686   2.781  0.0566  0.1512  0.2188
    1W        W32407  23.975  24.075   1.692  0.2090 -0.1500 -0.1782
    1W        W32408   0.930   6.160   2.072 -0.0386 -0.0954  0.0548
    1W        W32409  20.415   3.571   0.250  0.0388 -0.0350 -0.4504
    1W        W32410   8.111  19.018   2.125  0.2117 -0.2633 -0.1758
    1W        W32411  21.646   5.657   9.172  0.0798  0.1208  0.1467
    1W        W32412  15.557  25.002   7.103  0.0390  0.2024  0.1704
    1W        W32413  12.101  29.772   8.583  0.0897  0.3017 -0.0981
    1W        W32414   6.733  22.376   7.106  0.0732 -0.3762  0.0760
    1W        W32415  23.460  14.035   7.752 -0.1458 -0.1964 -0.1106
    1W        W32416  16.124  24.834   6.212 -0.2264 -0.1808  0.1520
    1W        W32417  18.602  14.309   2.409  0.0768  0.0761 -0.0643
    1W        W32418  16.404  27.822   8.948  0.0127  0.2903 -0.0687
    1W        W32419  19.191   2.312   3.134 -0.1814  0.2549  0.0302
    1W        W32420  24.936   6.682   2.101 -0.0079  0.4112 -0.0267
    1W        W32421   3.237   3.410   7.621 -0.1568 -0.1816  0.0166
    1W        W32422  21.194  25.384   7.723 -0.2422 -0.2096  0.2197
    1W        W32423   2.257   6.186   6.811  0.0324  0.0638 -0.1187
    1W        W32424   1.135  11.146   7.336 -0.2619  0.1484  0.0087
    1W        W32425  15.423  16.279   9.519  0.0622 -0.0731 -0.0966
    1W        W32426   7.570  25.400   0.278 -0.1275 -0.3759  0.0469
    1W        W32427  14.146   8.816   8.974 -0.2267 -0.1297 -0.1106
    1W        W32428  22.960   4.854   2.535  0.1478  0.3834  0.1988
    1W        W32429  27.867  21.403   0.702  0.0383 -0.0566 -0.1701
    1W        W32430  23.354   5.132   2.699  0.2485  0.0213  0.2715
    1W        W32431  29.265  18.327   0.612 -0.2650  0.1024  0.0418
    1W        W32432  19.615   7.362   0.822 -0.4778  0.2510  0.0030
    1W        W32433  19.593  28.219   1.705 -0.1158 -0.1022  0.0156
    1W        W32434  24.511   6.388   9.067  0.1434  0.3664  0.1105
    1W        W32435  11.381  21.059   1.463  0.1887  0.0457  0.1155
    1W        W32436   1.208  20.071   1.415 -0.1498 -0.2142 -0.3461
    1W        W32437   1.205   6.766   8.463 -0.1491  0.2692 -0.2645
    1W        W32438   5.394   4.138   8.033 -0.0297  0.0758  0.0437
    1W        W32439  24.124  12.071   2.160 -0.1030 -0.0395  0.0123
    1W        W32440  15.496   0.978   0.443  0.0754 -0.3786  0.1728
    1W        W32441  22.734   1.631   1.810 -0.1071  0.0226 -0.4239
    1W        W32442  15.944  11.134   0.730  0.0994 -0.0528 -0.4144
    1W        W32443  26.517   4.951   0.741 -0.4393 -0.1967  0.2709
    1W        W32444   4.148  12.913   7.629  0.1315  0.1783 -0.0245
    1W        W32445   7.628  25.830   5.545  0.1925 -0.0526  0.1311
    1W        W32446   2.122   1.397   8.492 -0.2691  0.2771 -0.1074
    1W        W32447  23.619  18.687   8.017 -0.0187  0.4745 -0.2799
    1W        W32448  23.996  28.773   2.499  0.0897 -0.0531 -0.0995
    1W        W32449  11.602  23.860   8.632  0.1141 -0.0645 -0.0821
    1W        W32450  21.396  22.246   0.308 -0.1018 -0.0940 -0.1202
    1W        W32451   3.742  16.187   1.669 -0.0928 -0.1601 -0.0044
    1W        W32452  13.129   1.890   0.291 -0.3530 -0.0423  0.0501
    1W        W32453  27.144  12.116   0.121 -0.0745  0.0150 -0.0206
    1W        W32454  17.262   2.448   2.194  0.0268  0.2270 -0.1099
    1W        W32455  28.783  16.837   2.106 -0.1694  0.0421 -0.1282
    1W        W32456  14.914  29.160   0.358  0.0392 -0.0913  0.3356
    1W        W32457  27.314  23.447   7.472 -0.2065  0.4312  0.2934
    1W        W32458  24.958  22.183   1.572 -0.0062 -0.0378  0.0109
    1W        W32459  16.650  17.047   1.304 -0.1149 -0.1461  0.1785
    1W        W32460  26.037   4.521   9.088  0.1406  0.0990 -0.2299
    1W        W32461   7.349  25.029   1.370 -0.0568  0.1457  0.0070
    1W        W32462   8.306  25.228   1.946 -0.1009 -0.0463 -0.3763
    1W        W32463  15.627   9.578   9.159  0.1039  0.0205 -0.1596
    1W        W32464  20.438  24.984   1.353  0.0047  0.3866 -0.1877
    1W        W32465   9.404  29.598   7.021 -0.0026 -0.1000 -0.2289
    1W        W32466   5.052  16.993   0.325 -0.1250 -0.0181 -0.2847
    1W        W32467  26.938  15.806   1.689  0.2810  0.1476  0.1117
    1W        W32468   4.246  22.944   1.739 -0.2187 -0.2300  0.0422
    1W        W32469   4.949  11.191   0.812  0.0278  0.2310 -0.4344
    1W        W32470  27.858   2.807   0.692  0.2217 -0.0597  0.0504
    1W        W32471  19.979  24.958   1.800 -0.1568 -0.0140  0.0053
    1W        W32472   1.804   9.182   7.407 -0.1961  0.0463 -0.0381
    1W        W32473  26.588  17.120   1.285 -0.1324  0.2353 -0.0407
    1W        W32474  18.598   6.344   8.221  0.1092 -0.0896 -0.1834
    1W        W32475  19.134  22.349   7.135 -0.1022 -0.0757  0.0084
    1W        W32476  27.580   9.621   1.386 -0.1226  0.1794  0.2050
    1W        W32477  12.511  21.165   8.298  0.2139  0.1579  0.0615
    1W        W32478   7.731  25.030   0.803 -0.0103  0.0853 -0.1361
    1W        W32479  11.368   7.367   1.560 -0.2745  0.1713  0.0819
    1W        W32480  28.597   0.484   6.766 -0.1799  0.0592 -0.2159
    1W        W32481  26.275  17.042   9.514  0.1363 -0.0359  0.2313
    1W        W32482  20.578  13.466   8.346 -0.1084  0.0635  0.1474
    1W        W32483  18.541   7.272   8.132  0.1316  0.0888 -0.3350
    1W        W32484  21.399  20.995   8.832 -0.1124  0.1148 -0.0926
    1W        W32485  26.603  29.293   1.388  0.0781  0.0684  0.0567
    1W        W32486  10.455   5.501   7.603 -0.0453 -0.0307 -0.0374
    1W        W32487   2.697  25.825   5.283  0.0838  0.3147  0.5754
    1W        W32488   2.419   8.063   1.377 -0.1550 -0.1780 -0.0327
    1W        W32489  16.081   1.416   2.203  0.2293  0.1315 -0.0149
    1W        W32490  26.038  23.279   8.340 -0.2305 -0.3850  0.2548
    1W        W32491  10.716  14.424   6.848 -0.1399 -0.1063  0.4457
    1W        W32492  12.110  11.040   1.700  0.0890  0.0876 -0.1830
    1W        W32493  10.852  17.300   0.867  0.1904 -0.0977 -0.0098
    1W        W32494  18.373   0.727   3.617  0.1617  0.2091 -0.0851
    1W        W32495  14.383  26.366   1.121 -0.0601 -0.1153  0.0807
    1W        W32496  24.774  19.988   7.153  0.0026 -0.3307 -0.0516
    1W        W32497  18.894   9.887   8.481  0.0373  0.1448 -0.0042
    1W        W32498   3.207  14.638   8.926 -0.3642  0.0263 -0.1025
    1W        W32499  10.639   1.906   6.941  0.0953 -0.0721  0.1718
    1W        W32500  26.104   0.372   2.078  0.2470  0.2574 -0.2321
    1W        W32501  18.268  21.421   0.683  0.1107  0.2398 -0.1587
    1W        W32502   3.196  20.548   2.898  0.0707 -0.0860  0.0131
    1W        W32503  28.841  17.488   1.901 -0.1286 -0.1898 -0.0249
    1W        W32504  17.009   2.849   2.662  0.0671 -0.1472 -0.1569
    1W        W32505  12.592  10.521   0.793 -0.0006 -0.1024  0.0827
    1W        W32506   8.725   7.462   8.941  0.4927  0.1022  0.1527
    1W        W32507  19.377  11.911   8.217  0.0932 -0.2547  0.0959
    1W        W32508  16.838   1.802   8.291 -0.1467  0.0619  0.1716
    1W        W32509  23.346   6.174   0.115 -0.0002 -0.2894  0.1484
    1W        W32510  13.076  18.640   6.763 -0.2160 -0.3924  0.1528
    1W        W32511  10.335  10.241   0.435  0.1454  0.2028  0.2088
    1W        W32512  12.914  17.676   7.619 -0.1395  0.2809 -0.0591
    1W        W32513  29.219  23.534   2.721  0.1819  0.0502  0.2298
    1W        W32514  20.377  21.144   6.240 -0.2650  0.1861 -0.2272
    1W        W32515   8.203  24.961   9.469 -0.0503 -0.0699 -0.0269
    1W        W32516  20.473   3.013   1.228 -0.1040  0.1670 -0.1122
    1W        W32517   7.971   8.837   1.177  0.1175  0.0271  0.0030
    1W        W32518  24.962   9.461   8.155  0.2795  0.1932 -0.2398
    1W        W32519  19.218   3.173   1.632 -0.0627  0.1053  0.2030
    1W        W32520   9.214  21.217   7.151 -0.0295  0.0447 -0.0484
    1W        W32521   6.163   2.575   8.084 -0.0233  0.1925 -0.0804
    1W        W32522   1.882  16.618   0.037  0.0022  0.0452  0.1818
    1W        W32523  23.431  17.708   9.407 -0.0183  0.1991  0.1425
    1W        W32524   2.679   2.036   1.805  0.0210  0.1662  0.1118
    1W        W32525   2.817   0.849   9.314 -0.0182  0.0930 -0.1650
    1W        W32526   0.976  12.754   9.225 -0.3945 -0.1080 -0.0144
    1W        W32527   3.630   2.928   7.319  0.0256  0.0660 -0.0215
    1W        W32528  16.256  13.916   1.279  0.0289 -0.1067  0.1318
    1W        W32529  25.244   3.348   6.802 -0.2788  0.0053 -0.1928
    1W        W32530   4.324   6.597   8.914  0.0570  0.3741 -0.1323
    1W        W32531   6.219  10.676   1.916  0.4277 -0.1298 -0.0219
    1W        W32532  10.995   5.908   8.875  0.1063  0.0993 -0.2878
    1W        W32533  11.851  13.906   6.401 -0.0696 -0.0124  0.1625
    1W        W32534   1.783  12.198   8.836 -0.0437 -0.0434 -0.1170
    1W        W32535  28.922  28.322   9.401  0.0703  0.1319  0.2486
    1W        W32536   4.389  15.102   2.323 -0.2227 -0.0266  0.0801
    1W        W32537  16.419   4.321   3.423 -0.3623  0.2481  0.0055
    1W        W32538  14.374   1.945   8.125 -0.0191  0.2428 -0.2758
    1W        W32539  21.645   2.729   3.081  0.1101  0.0755  0.1404
    1W        W32540  21.679   8.495   2.126 -0.2064  0.0744  0.0392
    1W        W32541  20.856  28.789   7.795  0.0426  0.4503  0.2594
    1W        W32542  12.201  25.633   0.947 -0.0508 -0.1199 -0.0514
    1W        W32543   2.826   9.687   0.896 -0.1899 -0.1697  0.1069
    1W        W32544  19.377   2.411   0.120 -0.0156  0.1026  0.0091
    1W        W32545   9.317   9.651   3.053 -0.1752 -0.1310 -0.2175
    1W        W32546  12.271  10.200   0.041 -0.0589  0.0218 -0.1263
    1W        W32547  20.966  21.114   1.963 -0.1500  0.0092  0.1462
    1W        W32548   8.488  11.267   3.606 -0.1292  0.2722 -0.0796
    1W        W32549   5.194  15.009   9.104 -0.0856  0.1426 -0.1465
    1W        W32550  25.617  14.535   0.296  0.0063 -0.3287  0.1652
    1W        W32551  21.513   3.883   9.185 -0.1933  0.1530 -0.1556
    1W        W32552   7.481   7.535   0.385  0.0797 -0.2012 -0.2120
    1W        W32553  13.309  19.744   5.534  0.0806  0.2268 -0.1373
    1W        W32554   4.259  29.160   9.467  0.1878 -0.3145  0.2837
    1W        W32555  27.065   8.272   8.821  0.0784 -0.1292  0.0862
    1W        W32556   1.106  27.593   6.469  0.1223 -0.0838  0.1901
    1W        W32557   3.275  19.445   0.435 -0.1934 -0.0642 -0.0084
    1W        W32558   8.471   7.055   7.874 -0.4318 -0.1044 -0.2646
    1W        W32559   3.082  21.161   1.955 -0.1581  0.1564  0.2850
    1W        W32560   5.373  24.263   8.880 -0.4099 -0.1898  0.0063
    1W        W32561   1.106  24.329   2.203 -0.1599  0.0011 -0.2778
    1W        W32562   3.884   4.810   8.421 -0.1941  0.1409  0.1972
    1W        W32563  17.866   4.896   8.357  0.1665  0.1703  0.0199
    1W        W32564   7.034  13.628   7.484 -0.2841 -0.2185  0.1174
    1W        W32565  22.732  25.304   7.652  0.2454  0.1049 -0.1143
    1W        W32566  15.835   7.547   8.284 -0.0731  0.2648  0.0713
    1W        W32567   0.862  22.434   6.267  0.0193  0.1441 -0.2223
    1W        W32568   2.893   2.418   7.216 -0.0731  0.2625 -0.1935
    1W        W32569  18.934   3.666   4.193 -0.0012 -0.0400  0.3074
    1W        W32570   4.542  15.651   2.236 -0.2370 -0.0523  0.0416
    1W        W32571   6.474   8.158   6.831  0.1468 -0.3557 -0.6257
    1W        W32572   6.724  22.848   2.590  0.1487  0.0644  0.0052
    1W        W32573   3.580  28.647   0.127  0.2164  0.0134  0.3768
    1W        W32574  29.326  10.946   2.038  0.0658 -0.4367  0.0537
    1W        W32575  15.810  16.645   8.862  0.0515 -0.0345 -0.1685
    1W        W32576  23.898   8.032   0.879 -0.0925  0.0478 -0.0014
    1W        W32577   4.794  12.408   7.172  0.0226  0.2438  0.1085
    1W        W32578  13.618   2.088   8.464  0.0964  0.1858  0.1804
    1W        W32579  19.858   5.754   2.931 -0.0059  0.1443  0.0103
    1W        W32580  25.696   9.437   0.350 -0.0794  0.2126 -0.1809
    1W        W32581  16.006  15.003   1.838  0.1048  0.0766 -0.1295
    1W        W32582  16.275  12.874   1.951  0.1408  0.1770  0.0745
    1W        W32583  27.502  23.929   8.196  0.2592 -0.0010  0.1421
    1W        W32584  14.982  11.508   0.835 -0.1214 -0.1335  0.2601
    1W        W32585  10.448  26.552   6.978  0.0458 -0.0351  0.2335
    1W        W32586  18.900  13.872   2.314  0.1290  0.2199  0.3625
    1W        W32587  16.434  15.722   0.859  0.2649  0.0126  0.0388
    1W        W32588  10.777  22.839   5.522  0.1757 -0.0072  0.1589
    1W        W32589  10.915   7.118   7.738 -0.0315 -0.1319  0.3271
    1W        W32590  26.880  28.662   8.618 -0.0926 -0.0835 -0.0938
    1W        W32591   1.574  20.658   6.005 -0.2748 -0.2139  0.1233
    1W        W32592   8.587   6.192   0.399 -0.0223 -0.2397 -0.0317
    1W        W32593   2.339  29.254   0.621  0.0795 -0.1693 -0.1302
    1W        W32594   9.302   1.727   2.468  0.1035  0.0425 -0.0102
    1W        W32595  26.821   1.006   8.214  0.2523  0.2845  0.0863
    1W        W32596  25.242  21.295   7.331  0.2607 -0.2058  0.0133
    1W        W32597  11.989   9.119   1.384  0.1530  0.1100  0.2410
    1W        W32598   8.047  21.685   9.294 -0.0260  0.0720  0.4693
    1W        W32599   4.306  25.063   6.473 -0.1515  0.3482 -0.0498
    1W        W32600  24.865  21.570   1.666  0.0152 -0.1807  0.0084
    1W        W32601   4.989  11.975   9.223 -0.1403  0.3265  0.3288
    1W        W32602   8.910  12.158   0.640  0.1973 -0.1409  0.1105
    1W        W32603  23.255  27.037   7.833  0.2414  0.0773  0.2895
    1W        W32604  13.085  21.743   1.191  0.2205 -0.1186 -0.1449
    1W        W32605   1.310  27.630   0.938 -0.0563 -0.0479  0.1702
    1W        W32606  18.986  11.827   7.772 -0.0279  0.0434  0.2688
    1W        W32607  21.598   8.594   8.043 -0.1064  0.1924 -0.1273
    1W        W32608  28.490   8.780   0.568 -0.0987  0.2381 -0.1613
    1W        W32609  20.687  24.307   5.245 -0.2654  0.0493  0.1676
    1W        W32610   4.085   7.706   0.298 -0.0623  0.0539  0.1380
    1W        W32611   2.867   1.776   2.935 -0.0425  0.4777 -0.0942
    1W        W32612  16.679  12.944   3.048  0.0521 -0.0128  0.0345
    1W        W32613  27.991  12.800   7.252  0.3535 -0.0525 -0.0321
    1W        W32614  26.035   7.205   9.307 -0.3773  0.1963 -0.1157
    1W        W32615   4.336  17.434   2.066  0.1796 -0.0538  0.0042
    1W        W32616  13.180  21.183   0.603 -0.1002  0.1298 -0.0809
    1W        W32617  24.352  28.533   2.214  0.0551 -0.4788  0.0189
    1W        W32618  11.003   7.850   3.085  0.0557 -0.2649 -0.0908
    1W        W32619  24.216   2.855   2.947 -0.3779 -0.0004  0.2313
    1W        W32620  11.590  16.186   2.292  0.2147 -0.0626  0.1790
    1W        W32621  19.990  25.143   1.281  0.0256  0.0537 -0.1009
    1W        W32622  10.720  29.603   0.588 -0.1074  0.0046 -0.1092
    1W        W32623   1.765  17.177   0.546 -0.1865  0.0010 -0.0725
    1W        W32624   5.326   0.534   7.135  0.0540 -0.0149 -0.0325
    1W        W32625   2.027  15.108   0.945 -0.0204 -0.1728  0.2319
    1W        W32626  24.084  10.760   2.064  0.0480  0.2698  0.3040
    1W        W32627  29.193  24.875   6.999 -0.2059  0.2588  0.0736
    1W        W32628  15.709  22.827   6.641  0.2218 -0.0064  0.0080
    1W        W32629  29.269  29.774   0.003  0.1607 -0.1617  0.0972
    1W        W32630   2.619  29.778   1.792 -0.0062  0.3044  0.2972
    1W        W32631   7.639   9.997   2.590 -0.0587  0.0764  0.0485
    1W        W32632  18.541  13.003   2.134 -0.1274 -0.3498  0.1330
    1W        W32633  18.245   1.312   4.476 -0.1119  0.3237 -0.0980
    1W        W32634  17.404  13.699   1.773 -0.0783  0.1921  0.0232
    1W        W32635   5.323  21.917   0.194  0.1345 -0.1195  0.1007
    1W        W32636   6.584  29.519   1.498 -0.2047  0.2302 -0.0143
    1W        W32637   3.821   8.088   3.319 -0.0802 -0.0188  0.2678
    1W        W32638  20.184   8.730   0.057  0.1176  0.1010 -0.4041
    1W        W32639  21.083   9.291   2.829  0.1846 -0.0304 -0.1425
    1W        W32640  21.881  11.430   9.406  0.0696 -0.1512  0.2027
    1W        W32641   0.869   6.541   7.629 -0.0369 -0.1392 -0.5523
    1W        W32642   1.774  29.504   7.114 -0.3481 -0.0064  0.0905
    1W        W32643   3.908  10.101   7.589  0.1855 -0.3709 -0.1471
    1W        W32644   3.549  22.686   7.259 -0.0499  0.1275 -0.0193
    1W        W32645  18.381   7.107   1.827  0.1521 -0.3231 -0.0109
    1W        W32646  27.668  11.550   2.121  0.1127  0.3196  0.0031
    1W        W32647   2.459  18.278   0.316  0.0867 -0.1779  0.0477
    1W        W32648   6.085   2.578   8.642  0.0090  0.1646  0.3500
    1W        W32649   9.328  17.554   8.252  0.0873 -0.0541 -0.1885
    1W        W32650  17.612  28.640   1.642  0.1595 -0.1843 -0.6461
    1W        W32651  23.454   4.282   7.309  0.3626  0.2595  0.1013
    1W        W32652  21.225  27.003   1.797 -0.0171  0.2091  0.3784
    1W        W32653  29.831  16.389   7.032 -0.0101  0.3960  0.0242
    1W        W32654  11.459   3.815   3.170  0.1163 -0.1478 -0.0679
    1W        W32655   4.074   3.442   1.959  0.0632 -0.0042 -0.3140
    1W        W32656  10.587   5.725   0.025  0.0877  0.1777  0.0310
    1W        W32657  11.503  21.714   7.999 -0.0031 -0.0068 -0.0969
    1W        W32658  23.647   4.040   2.796  0.3171 -0.0262 -0.2902
    1W        W32659  21.693  13.718   1.128 -0.2445 -0.0106 -0.1898
    1W        W32660   2.641  28.057   8.804 -0.1578  0.1140 -0.1170
    1W        W32661   5.558  20.485   5.726 -0.3755 -0.0070 -0.2059
    1W        W32662  21.064  22.991   8.356 -0.1388  0.0122 -0.1154
    1W        W32663   6.592   7.357   0.332  0.0189 -0.2161 -0.1433
    1W        W32664  21.870  14.392   9.144  0.1126 -0.0913 -0.1746
    1W        W32665   9.326   1.543   3.022  0.0812  0.2081  0.1838
    1W        W32666  15.401   5.491   0.634 -0.4785  0.2295  0.1668
    1W        W32667  15.300   5.139   1.046  0.0267  0.1983 -0.0130
    1W        W32668  23.174  26.329   6.340  0.1438  0.2352 -0.1224
    1W        W32669  19.364  21.554   8.555  0.1452 -0.2394  0.0212
    1W        W32670   0.358   2.304   7.126  0.4482  0.1786  0.1917
    1W        W32671  15.956   3.522   4.120  0.0641  0.0942  0.1722
    1W        W32672   2.152  15.483   7.391 -0.1073 -0.1635 -0.1827
    1W        W32673  21.678  18.651   2.044 -0.1318 -0.1255  0.1417
    1W        W32674  19.228  20.080   8.955  0.0655  0.0503 -0.3489
    1W        W32675  20.548  12.229   0.866  0.2647 -0.0904 -0.1208
    1W        W32676  16.443  25.140   0.700  0.0136 -0.1913 -0.1405
    1W        W32677  12.154  14.875   1.446 -0.0743 -0.0192  0.1347
    1W        W32678  23.470  12.825   0.715 -0.2998 -0.2995 -0.4021
    1W        W32679  21.804  24.825   3.019 -0.2776  0.1035  0.0660
    1W        W32680   6.969  19.053   6.927 -0.3808  0.0560 -0.0591
    1W        W32681  12.006  21.184   8.197 -0.1387  0.3087  0.0073
    1W        W32682   2.163  22.549   8.813  0.1163 -0.0905 -0.4530
    1W        W32683  27.721   3.038   8.933  0.0130 -0.0976  0.0479
    1W        W32684   0.039   4.680   0.326  0.0319  0.0798  0.1182
    1W        W32685  15.839  27.269   8.743 -0.3031  0.1994 -0.0716
    1W        W32686  27.279  23.856   2.395  0.1854 -0.0051 -0.1226
    1W        W32687  22.362  24.704   0.605 -0.0050  0.0097  0.1805
    1W        W32688  23.710   9.718   1.786 -0.0761 -0.1778  0.4030
    1W        W32689  15.901  18.373   0.001 -0.1451  0.2172  0.1779
    1W        W32690  10.208  21.350   6.397  0.2779 -0.1028  0.2838
    1W        W32691  28.901   5.868   2.159 -0.1454 -0.4315 -0.0182
    1W        W32692  22.047  26.052   2.397  0.0773  0.0994  0.1832
    1W        W32693   8.438   2.721   3.525 -0.1776 -0.2041 -0.1041
    1W        W32694  21.029  11.912   0.733  0.1233 -0.2568  0.3587
    1W        W32695   4.109   7.696   9.309 -0.2298 -0.1025 -0.0160
    1W        W32696   2.114   8.211   2.862 -0.0318 -0.0806 -0.0060
    1W        W32697  25.077   9.386   9.322 -0.2646  0.2179 -0.0821
    1W        W32698  12.369  19.120   0.897  0.2084 -0.0931  0.1978
    1W        W32699  25.684   3.901   0.136  0.1228  0.2839 -0.0037
    1W        W32700   7.094  24.890   7.330  0.1600  0.1628 -0.0389
    1W        W32701  18.142   3.496   2.990 -0.0500  0.1414  0.2233
    1W        W32702  28.701  22.817   0.063  0.0267  0.0796  0.1547
    1W        W32703   8.120   9.947   8.525  0.0869  0.2352  0.1065
    1W        W32704  13.711   4.286   1.349  0.0362 -0.1522 -0.3517
    1W        W32705  28.265  19.860   8.438  0.3261 -0.2610 -0.0820
    1W        W32706   1.316  22.823   0.736 -0.0247  0.0436 -0.1586
    1W        W32707   8.900  25.433   0.599 -0.0135 -0.1596 -0.1575
    1W        W32708  16.147   1.177   0.078  0.0878 -0.0399  0.0579
    1W        W32709  21.458   6.652   8.252  0.1862  0.0349  0.0144
    1W        W32710   0.774  26.747   7.234 -0.3293 -0.0038 -0.0944
    1W        W32711  28.177  26.469   8.682  0.0500 -0.1705  0.1079
    1W        W32712  25.314  19.388   5.998 -0.1323  0.2342  0.2822
    1W        W32713  13.850  11.507   7.180 -0.0553 -0.3440 -0.3796
    1W        W32714  24.076  20.475   6.868 -0.0213  0.1141  0.0194
    1W        W32715   1.667   4.714   7.103  0.1360  0.0356 -0.1039
    1W        W32716  28.440  11.474   8.992 -0.2110  0.0504 -0.1424
    1W        W32717   0.367  29.363   8.761  0.2529 -0.0886  0.0529
    1W        W32718  23.039   8.203   0.675  0.2415  0.0724 -0.2051
    1W        W32719  21.698  27.328   8.987 -0.3352  0.1546  0.1441
    1W        W32720   7.250   8.272   9.036 -0.0089 -0.0099 -0.0574
    1W        W32721  13.682  11.638   8.481  0.0333 -0.2889  0.1887
    1W        W32722  13.057   7.488   8.694  0.0126 -0.0415  0.2493
    1W        W32723  10.559   5.810   2.279 -0.4838 -0.1208 -0.0574
    1W        W32724   2.395   2.717   9.404  0.1768 -0.1049 -0.2822
    1W        W32725  17.559  19.280   0.632  0.0436 -0.1955  0.1188
    1W        W32726   6.734   7.223   2.662 -0.4074  0.3807 -0.0567
    1W        W32727  20.394  13.320   2.394 -0.0302 -0.0039 -0.0203
    1W        W32728  29.634  13.715   0.414  0.1427 -0.2302  0.2522
    1W        W32729  22.996  17.557   7.787  0.0411 -0.2581  0.0116
    1W        W32730  29.220  23.897   7.388  0.2396 -0.2411  0.0476
    1W        W32731   8.753  16.997   6.938 -0.2913 -0.1495 -0.0181
    1W        W32732  29.151   8.256   1.487  0.0455  0.1100  0.0732
    1W        W32733   1.587   9.267   0.795 -0.0463 -0.3277  0.2503
    1W        W32734  11.429   0.053   1.947 -0.1656  0.1959 -0.2967
    1W        W32735  28.240   3.369   2.648  0.2274 -0.0687 -0.0412
    1W        W32736  23.024  28.620   2.556 -0.4325 -0.2327  0.1398
    1W        W32737  21.137   5.138   0.892  0.0711  0.2731  0.2927
    1W        W32738  26.946   9.168   9.117  0.2011 -0.1062 -0.0084
    1W        W32739  25.773  29.425   0.439  0.0071 -0.0152  0.1897
    1W        W32740  20.123  14.608   1.498 -0.0079 -0.1250  0.2537
    1W        W32741  24.911   5.007   7.769 -0.1484  0.1929 -0.0477
    1W        W32742  25.333  14.121   9.487  0.1867  0.1783 -0.2715
    1W        W32743  29.267  26.737   1.885 -0.0205 -0.1157  0.0555
    1W        W32744  16.915  20.100   0.514  0.3164  0.2163 -0.1668
    1W        W32745   9.187   0.301   2.420 -0.1437 -0.0367 -0.0865
    1W        W32746   7.760   6.041   8.728  0.1973 -0.2053 -0.1504
    1W        W32747  28.930  10.726   6.867 -0.1250  0.2664  0.0878
    1W        W32748  25.907  24.551   0.688 -0.0559 -0.2669  0.0452
    1W        W32749  17.052  21.445   6.444 -0.1086  0.1737  0.0456
    1W        W32750   5.478   5.996   8.672  0.0298 -0.0537 -0.2263
    1W        W32751   4.479  14.720   1.304 -0.0825 -0.0328 -0.1493
    1W        W32752   1.203  25.685   7.419 -0.2979  0.2276 -0.2519
    1W        W32753  13.384  15.413   8.810  0.0157 -0.1854 -0.0765
    1W        W32754  12.186  17.412   0.047  0.1070 -0.0284  0.3786
    1W        W32755  24.534  14.168   1.495 -0.0107 -0.4511 -0.1148
    1W        W32756  23.431  24.293   8.229 -0.1126  0.1812 -0.1245
    1W        W32757   8.694   6.954   7.472  0.2212  0.0909  0.2462
    1W        W32758  27.470  21.807   7.102 -0.3847  0.0581  0.0357
    1W        W32759  23.558   4.759   8.408 -0.0741 -0.0834 -0.0420
    1W        W32760  25.810   3.575   8.140 -0.4361  0.3349 -0.1001
    1W        W32761  26.731   3.613   1.420  0.2899  0.3626 -0.0331
    1W        W32762  15.368  11.658   1.106  0.1561 -0.2367  0.0775
    1W        W32763  12.083   7.714   8.273 -0.2866 -0.1699  0.2101
    1W        W32764   6.665  14.966   6.039  0.0400 -0.0616 -0.1351
    1W        W32765  26.112  28.243   2.327  0.2407 -0.0263  0.1094
    1W        W32766   2.959  10.439   2.062 -0.2266  0.3164 -0.0767
    1W        W32767  20.692  15.405   9.023  0.3051 -0.1338 -0.0078
    1W        W32768   1.061  13.538   8.924 -0.1823 -0.0059 -0.3675
    1W        W32769   3.757   9.629   2.547 -0.1556 -0.2432  0.1896
    1W        W32770  11.140  26.222   9.026  0.1529  0.2641 -0.0456
    1W        W32771  15.421  22.031   8.210 -0.1611  0.2727  0.2422
    1W        W32772  22.984  14.357   1.811 -0.1287  0.1312  0.2331
    1W        W32773   5.555  26.307   0.330 -0.1926 -0.1681 -0.0492
    1W        W32774   2.718  25.602   0.268  0.0637  0.0406  0.2977
    1W        W32775  28.679  28.544   1.983 -0.1212  0.1153  0.1317
    1W        W32776   3.961  19.046   1.361 -0.1124  0.1984  0.2606
    1W        W32777  14.799  23.188   6.052  0.2859 -0.1597 -0.0222
    1W        W32778   3.063  18.303   1.723 -0.2321 -0.2453 -0.2021
    1W        W32779  19.354  10.222   9.507 -0.3211  0.0203 -0.2081
    1W        W32780   5.653  15.378   7.072  0.0505  0.3347  0.0728
    1W        W32781   3.622  23.471   6.647  0.0124  0.1891 -0.2395
    1W        W32782   4.377  16.666   6.938 -0.1483 -0.0679 -0.0099
    1W        W32783  14.939  17.044   6.568 -0.1428  0.3278 -0.0314
    1W        W32784  14.316   9.608   8.009  0.0053  0.1004  0.0748
    1W        W32785  21.034  27.627   7.202 -0.3399 -0.0723  0.1025
    1W        W32786  28.705  22.643   0.996  0.0059  0.0249 -0.4558
    1W        W32787  25.833  29.160   2.233 -0.1662  0.1534  0.0593
    1W        W32788  12.690  19.378   9.506 -0.1866 -0.3442  0.0956
    1W        W32789  21.612  24.814   8.437 -0.0479 -0.3357  0.3578
    1W        W32790   3.861  20.043   0.313  0.0838 -0.2944  0.1454
    1W        W32791  14.928  11.580   8.213 -0.0802  0.2031  0.0725
    1W        W32792   8.162  23.305   7.647 -0.2048 -0.1030 -0.2659
    1W        W32793   6.713  18.254   1.455  0.1309 -0.2823  0.1034
    1W        W32794   9.361   8.272   0.992 -0.3270 -0.0792  0.0883
    1W        W32795  19.299  17.596   6.626 -0.0234 -0.1527  0.1359
    1W        W32796  25.193   6.066   0.360  0.2650  0.3559  0.2682
    1W        W32797   7.334   4.328   6.491  0.0824 -0.1786  0.0884
    1W        W32798  16.774   1.079   7.264 -0.2871 -0.1979 -0.0509
    1W        W32799  11.967  28.145   0.977  0.0454 -0.1721 -0.1651
    1W        W32800  20.654   3.878   2.214 -0.1257  0.0593  0.0994
    1W        W32801  20.538  18.803   6.445  0.0676 -0.0543 -0.0553
    1W        W32802   9.859  25.765   9.346 -0.0167  0.2702 -0.1542
    1W        W32803  15.158  21.208   6.616  0.1907 -0.0451  0.0156
    1W        W32804   5.189  15.836   6.381 -0.0003 -0.1687 -0.1101
    1W        W32805   6.203   7.362   2.724 -0.3560 -0.0567 -0.1463
    1W        W32806   3.735   5.552   6.605  0.1842  0.1577 -0.1832
    1W        W32807  10.814   9.567   7.782  0.0624 -0.0805  0.3943
    1W        W32808  10.088  21.464   1.572  0.1009  0.2408  0.0149
    1W        W32809  25.425  10.838   2.282  0.1968 -0.0991  0.3910
    1W        W32810  27.219  25.954   7.724 -0.1104 -0.2739  0.0127
    1W        W32811  13.522   8.386   3.516 -0.0107  0.1224  0.0115
    1W        W32812   2.034   1.638   1.458  0.1617 -0.2776 -0.1268
    1W        W32813  23.292  10.316   1.688 -0.0076  0.0870 -0.1792
    1W        W32814   4.155   9.660   0.066  0.1550 -0.1631 -0.1643
    1W        W32815  18.406   5.815   8.747 -0.1228 -0.1888  0.2264
    1W        W32816   3.894   6.785   8.756  0.0973  0.0831 -0.1375
    1W        W32817  14.170  15.064   8.994 -0.1661  0.1166 -0.1084
    1W        W32818   2.434   2.223   1.288  0.0162  0.1212 -0.0183
    1W        W32819   5.126   3.873   7.114  0.0458  0.1925 -0.2268
    1W        W32820  19.572   4.584   0.432  0.1014 -0.0871 -0.1928
    1W        W32821  18.117  25.871   8.734 -0.0455  0.1853  0.1124
    1W        W32822   7.750  27.572   1.509  0.0352  0.0457 -0.1911
    1W        W32823  19.588   2.654   8.141 -0.0273 -0.0441 -0.4025
    1W        W32824  25.337  27.771   8.982 -0.0197 -0.1510  0.2254
    1W        W32825  23.985  11.991   2.627  0.2440 -0.0213 -0.1567
    1W        W32826   2.217  22.217   8.387  0.1318  0.0398 -0.3295
    1W        W32827   2.530  13.066   8.063 -0.0461  0.1378  0.2004
    1W        W32828  18.528   8.684   1.058  0.0738  0.0775 -0.1473
    1W        W32829   3.969   9.115   0.926 -0.1094 -0.1500  0.6107
    1W        W32830   7.672  17.485   7.155  0.1028  0.1239  0.0776
    1W        W32831   9.050   5.511   1.585 -0.0183  0.0142 -0.0025
    1W        W32832  24.003  16.988   1.686  0.0478  0.0800 -0.1263
    1W        W32833   7.927  18.436   7.847  0.1969 -0.0573  0.0156
    1W        W32834   4.212   4.068   2.894  0.4749 -0.1776 -0.1028
    1W        W32835  11.838   6.040   3.469 -0.0345  0.0172 -0.0416
    1W        W32836   3.018  12.863   1.718 -0.0093  0.0560  0.3184
    1W        W32837   9.357   2.166   7.680  0.0323 -0.2830 -0.4517
    1W        W32838  16.333  25.355   9.404 -0.2788 -0.0493 -0.1036
    1W        W32839   9.373  25.646   7.511  0.2244  0.1014 -0.0741
    1W        W32840   8.401  26.929   0.278 -0.1184  0.2167  0.1726
    1W        W32841   2.676  25.842   6.117  0.0747  0.1961 -0.0610
    1W        W32842  28.830  13.545   9.051 -0.1503 -0.3599  0.0159
    1W        W32843   1.977   8.321   1.706 -0.2929  0.0949  0.0670
    1W        W32844   1.177  12.562   0.941 -0.1807  0.4252 -0.1317
    1W        W32845  20.939   5.348   8.601  0.3209 -0.3338 -0.2531
    1W        W32846  26.642   9.578   2.402 -0.1840  0.0396 -0.0150
    1W        W32847  23.509  27.371   6.437  0.1172  0.0474  0.1856
    1W        W32848  25.118  17.928   9.292  0.0660  0.1584  0.2932
    1W        W32849  13.470  21.173   7.458 -0.0257  0.0328 -0.1982
    1W        W32850   7.287  18.267   7.388  0.0338 -0.0725  0.0525
    1W        W32851   9.662  19.651   7.562 -0.2180  0.1293 -0.1157
    1W        W32852  26.537  13.373   9.190 -0.3892 -0.0949 -0.3889
    1W        W32853   3.018   9.442   6.925  0.3652 -0.2608 -0.1052
    1W        W32854   2.559  26.482   7.436 -0.0207  0.0078 -0.1993
    1W        W32855   6.524  20.390   6.806 -0.0658  0.3479  0.2218
    1W        W32856  25.192  17.225   8.202  0.1524 -0.1698 -0.0607
    1W        W32857   3.615   3.247   6.242  0.1767  0.1146  0.2523
    1W        W32858   1.595   2.768   1.709 -0.0326  0.3775  0.1425
    1W        W32859   0.409  15.173   2.425 -0.1072  0.3159  0.1320
    1W        W32860   5.673   7.356   0.621 -0.0745 -0.1577  0.0472
    1W        W32861  29.084  19.037   0.926  0.0367 -0.1010 -0.1135
    1W        W32862  15.885   9.112   9.385 -0.1691 -0.3091  0.3798
    1W        W32863   8.947  16.216   1.509 -0.1966 -0.3942  0.1865
    1W        W32864   7.464  11.713   5.921  0.2218  0.0335 -0.1465
    1W        W32865  19.851   5.481   2.292 -0.1699  0.1540 -0.0655
    1W        W32866   4.348  28.898   9.064  0.0027  0.2042  0.0526
    1W        W32867  10.196  20.364   6.628 -0.0221  0.4337 -0.0045
    1W        W32868   1.122   4.840   2.492 -0.0439 -0.0036  0.2577
    1W        W32869  23.478   0.904   1.794 -0.1117  0.1800  0.0591
    1W        W32870  26.993  25.243   2.701  0.1632  0.0583  0.0889
    1W        W32871  19.086  12.039   9.145 -0.0505 -0.1975 -0.2575
    1W        W32872  29.218  10.482   2.501  0.0422 -0.0537 -0.0796
    1W        W32873  28.757  13.061   8.634 -0.3620 -0.0854 -0.0683
    1W        W32874  10.848  11.344   7.555 -0.2081  0.2160  0.0253
    1W        W32875  25.828  16.463   1.609 -0.0172  0.0338 -0.4318
    1W        W32876  13.009  28.027   1.033  0.0202  0.0628 -0.3621
    1W        W32877   2.156  19.984   7.328  0.0263  0.0755  0.1146
    1W        W32878  11.377   8.797   0.747  0.0295 -0.2354 -0.2278
    1W        W32879   2.916  24.552   0.914  0.0984 -0.2021 -0.0931
    1W        W32880  13.681  23.106   6.097  0.0093 -0.0118  0.2641
    1W        W32881  11.597   4.854   3.969  0.1882 -0.1004  0.2269
    1W        W32882  19.812  23.977   6.894 -0.2226  0.0312  0.2152
    1W        W32883  11.925  11.667   1.037 -0.0096  0.3020  0.0955
    1W        W32884  26.844  19.869   1.877  0.0316  0.0483  0.1197
    1W        W32885   1.426   3.914   3.032 -0.3450  0.1354  0.1588
    1W        W32886  23.651   9.689   0.393  0.1252 -0.1565 -0.2081
    1W        W32887   2.923   7.907   7.893 -0.0745  0.2238 -0.1367
    1W        W32888  28.615   5.016   1.320  0.0763  0.1523 -0.1789
    1W        W32889  23.491   1.568   1.109 -0.0547  0.3214 -0.0933
    1W        W32890  22.844   3.617   3.276  0.1104 -0.0494  0.1232
    1W        W32891  20.521  20.738   7.528 -0.1450  0.0331 -0.3010
    1W        W32892   8.838  12.338   6.044 -0.3451 -0.2882 -0.2642
    1W        W32893   0.301   5.082   1.442 -0.1483 -0.3831 -0.0026
    1W        W32894  19.894  14.526   6.631  0.0472 -0.1071  0.0751
    1W        W32895  11.071   4.504   2.640 -0.1598 -0.1742 -0.2495
    1W        W32896  22.007  29.678   0.291 -0.0473  0.2390 -0.0655
    1W        W32897  13.532   1.300   1.066  0.1322  0.1524 -0.1980
    1W        W32898   2.946  12.301   1.221  0.1603 -0.1437  0.0286
    1W        W32899   4.845  22.032   6.868  0.0260  0.2402  0.2931
    1W        W32900   7.211  21.675   7.929  0.1307  0.1242  0.0044
    1W        W32901   3.242  19.712   8.815 -0.0516 -0.3605  0.0762
    1W        W32902   2.346   0.365   1.508  0.1861  0.2131 -0.1276
    1W        W32903  29.730  22.036   0.565 -0.2585 -0.2793  0.1794
    1W        W32904  27.289  27.491   7.225 -0.3231  0.0432 -0.1349
    1W        W32905   4.064  27.327   1.164 -0.0421  0.0984  0.0785
    1W        W32906  28.850  12.838   6.783  0.0272  0.1867 -0.1050
    1W        W32907  16.723  19.316   5.970  0.1502  0.0464  0.1326
    1W        W32908  17.131   0.019   8.538  0.2074  0.1908  0.0775
    1W        W32909  12.540   3.709   1.827 -0.4970 -0.0832  0.2959
    1W        W32910  15.206  28.197   7.705 -0.0788 -0.5248  0.0701
    1W        W32911  23.981  17.714   8.611  0.1138 -0.3352 -0.0775
    1W        W32912  25.820   1.093   1.948  0.1438  0.0721 -0.0188
    1W        W32913   5.423  27.602   7.859  0.0742  0.1386 -0.0085
    1W        W32914   8.116  19.853   8.033 -0.4126  0.3866 -0.3147
    1W        W32915  12.623  26.307   6.390 -0.4417 -0.4079  0.0441
    1W        W32916  18.190   6.271   2.837 -0.0433 -0.1742  0.2024
    1W        W32917  20.871  14.960   8.718  0.0656 -0.0295  0.0135
    1W        W32918  26.874  23.893   1.483  0.1881 -0.1486 -0.0649
    1W        W32919  24.041   1.257   2.694 -0.1116 -0.2409  0.0267
    1W        W32920  12.418  19.694   1.879 -0.0185 -0.1293 -0.1088
    1W        W32921   0.065   8.888   0.246 -0.2156  0.0147 -0.0579
    1W        W32922  10.622  11.345   0.485  0.0146  0.2812 -0.1689
    1W        W32923  12.526   2.629   9.202 -0.3365  0.1363  0.0794
    1W        W32924  12.243  15.800   7.339  0.0098  0.0636 -0.0558
    1W        W32925   0.472  11.689   7.123 -0.0543  0.1112 -0.2537
    1W        W32926   2.267   3.631   8.004 -0.1531 -0.1270 -0.3270
    1W        W32927   4.154  24.427   2.405  0.0100 -0.0023  0.0748
    1W        W32928  14.871  21.735   0.995  0.0954 -0.0572 -0.0226
    1W        W32929   6.447  12.749   2.234 -0.0955  0.1918  0.1244
    1W        W32930  24.655  19.033   9.434  0.0728 -0.1516 -0.3038
    1W        W32931  11.247  26.322   8.351 -0.2070  0.3400 -0.1972
    1W        W32932   8.088   1.901   7.446  0.1315 -0.0087 -0.0591
    1W        W32933  19.730  15.692   1.273 -0.5469 -0.1833  0.4089
    1W        W32934   5.288  10.376   1.762  0.0944  0.3932  0.1554
    1W        W32935   2.263  11.668   8.139  0.0891 -0.4815 -0.1306
    1W        W32936  13.098   9.833   1.893  0.0574  0.1292  0.0678
    1W        W32937  17.628  24.524   0.318  0.1195  0.1808 -0.0163
    1W        W32938  12.898   4.822   2.310 -0.3656 -0.0007 -0.0399
    1W        W32939   2.326   2.192   9.099 -0.0921  0.0040 -0.1744
    1W        W32940  21.212  22.342   7.428 -0.0211 -0.0871 -0.3681
    1W        W32941  11.873   8.468   7.656 -0.3757  0.1275  0.1803
    1W        W32942  20.391  29.412   8.458  0.2883  0.0635  0.1157
    1W        W32943  19.010   3.982   2.713  0.1654  0.0676  0.1715
    1W        W32944   2.036  15.098   9.237 -0.0701  0.1236 -0.1594
    1W        W32945  25.758  11.016   7.462  0.0068 -0.1834  0.0507
    1W        W32946  16.536  13.295   2.112 -0.0434 -0.1123  0.1442
    1W        W32947   0.257  26.474   1.516 -0.0165 -0.0625  0.1261
    1W        W32948  15.068  19.763   9.427 -0.0553 -0.0924 -0.0097
    1W        W32949   8.009   9.449   0.798  0.1597  0.0692 -0.0919
    1W        W32950   0.716  10.974   8.517  0.2893  0.0844 -0.2090
    1W        W32951  16.964   5.639   3.197  0.2153  0.3552 -0.0833
    1W        W32952   0.520  27.792   7.505 -0.1395  0.0152  0.1435
    1W        W32953   8.002   3.736   3.587 -0.0560  0.1583  0.0485
    1W        W32954  13.994  16.085   6.292 -0.2433  0.0117 -0.0579
    1W        W32955  17.489  18.318   1.783 -0.4089  0.1475  0.0291
    1W        W32956   1.315   6.797   7.596  0.1366 -0.0178  0.2353
    1W        W32957  24.713  15.819   7.692 -0.3437  0.1283 -0.4104
    1W        W32958  14.925   7.076   0.882 -0.1990 -0.2656 -0.1148
    1W        W32959   3.809   0.934   6.253  0.4533 -0.0508 -0.0184
    1W        W32960  18.333  24.713   1.870 -0.1545  0.1613 -0.0813
    1W        W32961  19.511  19.946   9.414 -0.1918 -0.0667 -0.2203
    1W        W32962   5.003  14.909   0.125  0.1901  0.2876  0.3746
    1W        W32963  27.491  27.793   7.730 -0.5547  0.1860 -0.2645
    1W        W32964  14.535   9.175   9.166 -0.1211 -0.0255 -0.1977
    1W        W32965  18.756   7.537   2.266  0.1135 -0.0610  0.1854
    1W        W32966   6.726  16.172   2.595  0.0154  0.0419 -0.1521
    1W        W32967  26.777  26.607   1.525  0.1977  0.0019 -0.2938
    1W        W32968   1.655   3.116   8.267 -0.4117 -0.0163 -0.1698
    1W        W32969  17.694  28.800   2.142  0.1470  0.2278  0.2196
    1W        W32970   3.378  24.638   6.351 -0.3852 -0.0349 -0.1221
    1W        W32971   8.117  11.068   8.849  0.2698 -0.1694 -0.3542
    1W        W32972   2.155   9.419   6.667  0.0556 -0.0677  0.1231
    1W        W32973   9.007  24.235   5.652 -0.0676  0.3813 -0.1743
    1W        W32974   6.437  19.218   1.662 -0.0561  0.0159 -0.0950
    1W        W32975  26.262  17.047   0.897  0.1737 -0.1613  0.1726
    1W        W32976   8.444  13.097   8.508 -0.0156  0.2364 -0.0274
    1W        W32977   3.442  10.132   7.295 -0.1706  0.0471  0.0562
    1W        W32978   5.563  16.463   1.116  0.1064  0.0832 -0.1363
    1W        W32979  12.116  20.184   6.693  0.0620 -0.1208  0.1623
    1W        W32980   7.593   9.749   8.705  0.1756  0.3458  0.0628
    1W        W32981  28.240  25.818   0.708  0.1824 -0.0846 -0.1323
    1W        W32982  24.064  26.401   8.405 -0.1253 -0.0001  0.0617
    1W        W32983  14.144  11.503   7.638  0.0010 -0.2464 -0.1332
    1W        W32984  15.189   1.143   1.281  0.0227  0.0595 -0.2385
    1W        W32985  24.721   4.219   7.298  0.1049 -0.1841 -0.0377
    1W        W32986  23.935  23.422   7.991  0.0814  0.2623 -0.1595
    1W        W32987  25.070  19.900   7.664 -0.0042 -0.4340  0.2527
    1W        W32988  11.259  21.309   9.149  0.0074  0.0110  0.1642
    1W        W32989  29.262  21.034   1.278 -0.0706 -0.0754 -0.3763
    1W        W32990  20.239  12.173   8.250 -0.0430  0.1400 -0.1177
    1W        W32991   3.652  23.514   1.872 -0.1641 -0.1184 -0.1374
    1W        W32992  13.624  18.703   0.601 -0.2992  0.1482  0.0230
    1W        W32993  28.706   3.371   7.104 -0.2240 -0.0316 -0.0785
    1W        W32994  16.746  20.480   8.141 -0.1773 -0.1303 -0.2574
    1W        W32995   4.719  15.915   6.560  0.0952 -0.2640 -0.2533
    1W        W32996  25.288   1.619   3.405 -0.1812  0.0204  0.0206
    1W        W32997  17.871   6.991   2.063 -0.1372  0.1612  0.1575
    1W        W32998  28.684   3.424   0.768  0.0596 -0.3640 -0.0741
    1W        W32999  28.867  21.473   9.060  0.1413  0.2485 -0.3427
    1W        W33000   6.365  21.596   7.618 -0.2587  0.1433 -0.1791
    1W        W33001  11.100   7.912   8.339 -0.0494  0.0259  0.1819
    1W        W33002  16.901  27.774   8.862 -0.0090 -0.1844 -0.1558
    1W        W33003   9.560  21.969   6.938  0.4071  0.0972  0.2432
    1W        W33004  17.565  12.899   8.239  0.0651 -0.4178  0.1308
    1W        W33005  28.204  22.309   1.972 -0.2217 -0.4134  0.1072
    1W        W33006  15.848   9.109   2.207 -0.0370 -0.0123 -0.1989
    1W        W33007  11.120   9.322   7.330  0.0810  0.2438 -0.1479
    1W        W33008  10.605  10.815   1.759  0.0724  0.2203  0.4223
    1W        W33009  26.009  22.233   7.560 -0.4564  0.3967 -0.5681
    1W        W33010   5.116  11.375   9.525 -0.1181  0.2281 -0.1660
    1W        W33011   6.065  26.995   6.981 -0.0022  0.1315 -0.1246
    1W        W33012  10.832   5.652   8.162  0.0354 -0.1612 -0.2336
    1W        W33013   2.389  17.175   2.214 -0.0235  0.0919  0.1796
    1W        W33014  20.979  20.676   7.560 -0.0843 -0.1801  0.0977
    1W        W33015  17.851  15.774   7.543 -0.1210  0.0459  0.0778
    1W        W33016  16.022  12.114   9.102  0.0033  0.0634  0.0948
    1W        W33017  13.861  19.433   6.571  0.0352 -0.0645  0.0789
    1W        W33018   6.585  24.783   7.174  0.2989 -0.0455  0.1162
    1W        W33019  21.073  16.316   1.060  0.0046  0.0960  0.2754
    1W        W33020  23.187  23.837   6.128  0.0924  0.2133  0.3937
    1W        W33021  12.023  12.786   9.278 -0.1295 -0.1083 -0.2701
    1W        W33022  12.761   7.573   0.084  0.0172 -0.1004  0.1447
    1W        W33023   8.881   2.333   7.682 -0.1782 -0.0011 -0.1665
    1W        W33024  13.416  16.241   7.490  0.1085 -0.2254  0.1025
    1W        W33025   2.286  23.912   7.625  0.1737  0.1641  0.1361
    1W        W33026  22.704  23.680   8.862  0.0886 -0.2369 -0.1852
    1W        W33027  12.317  13.344   1.630 -0.1590  0.0574  0.0117
    1W        W33028   0.998  16.887   1.088  0.0179  0.0255  0.0953
    1W        W33029   5.638  13.864   1.743  0.0529  0.0547  0.1277
    1W        W33030  26.114   0.135   7.248 -0.4082  0.1308 -0.1995
    1W        W33031   0.654  16.384   8.558  0.1137 -0.1905  0.2335
    1W        W33032  26.447  12.071   2.084 -0.1482  0.0046 -0.1058
    1W        W33033  11.165  24.262   9.098 -0.3255  0.3218 -0.0197
    1W        W33034  10.507  12.630   7.909  0.2189  0.1979 -0.2102
    1W        W33035  15.734  13.091   1.610  0.1186 -0.0381  0.1952
    1W        W33036  14.199   1.802   3.539  0.0199  0.0837  0.0149
    1W        W33037   3.593   5.777   7.013  0.2269 -0.1755  0.0949
    1W        W33038  20.490  21.487   7.239  0.1924 -0.2464  0.1223
    1W        W33039  20.618  18.993   8.191  0.0263  0.1041  0.2809
    1W        W33040  23.969  11.315   8.024 -0.0266 -0.1388 -0.2748
    1W        W33041   0.561  16.980   1.364 -0.0636  0.1449 -0.1078
    1W        W33042  17.997  24.834   9.046  0.1958 -0.0685 -0.4520
    1W        W33043  22.947   0.537   0.794  0.0979  0.0893 -0.2868
    1W        W33044  28.566  10.626   9.162  0.1348  0.1774 -0.4265
    1W        W33045  29.577  18.597   1.459  0.0238 -0.1745  0.0617
    1W        W33046  23.968  20.548   2.021 -0.1103 -0.0544 -0.0675
    1W        W33047   1.408   4.054   1.001 -0.2167  0.0547 -0.1409
    1W        W33048  20.825   3.273   1.517 -0.0045 -0.1409 -0.1037
    1W        W33049   9.090  16.967   0.512  0.0014  0.1953 -0.1878
    1W        W33050  11.197  20.637   8.332 -0.0984  0.1674  0.0048
    1W        W33051   9.815  16.175   8.662  0.0790  0.0938  0.1323
    1W        W33052   5.431   3.759   1.088 -0.2763  0.2837  0.1115
    1W        W33053  13.503  23.005   8.851 -0.0303  0.1201  0.1998
    1W        W33054  10.182  17.013   6.875 -0.0471 -0.0930 -0.3759
    1W        W33055   5.963  15.267   0.428 -0.0137 -0.4103  0.1798
    1W        W33056   1.406   3.608   0.377 -0.0056 -0.0009  0.2602
    1W        W33057   9.349  27.227   8.681 -0.1978 -0.1996  0.2377
    1W        W33058   6.503  21.522   1.775  0.1182  0.2169 -0.3421
    1W        W33059  26.567   8.205   7.354  0.0067  0.1090  0.0025
    1W        W33060  24.984   0.527   1.925 -0.2255 -0.0627  0.1185
    1W        W33061   1.271  23.012   6.893 -0.3420  0.0924  0.0880
    1W        W33062   4.145  28.826   2.113  0.1620  0.0471 -0.4156
    1W        W33063  10.638  18.419   9.200  0.1746 -0.0137 -0.0077
    1W        W33064  23.914   7.631   9.403 -0.2131  0.4226  0.0712
    1W        W33065   6.216   4.295   0.264 -0.0673 -0.0485  0.0770
    1W        W33066  19.113   0.864   7.918  0.1576  0.1377  0.2227
    1W        W33067  17.555   7.519   3.001 -0.2216 -0.1757 -0.0617
    1W        W33068  10.989  10.628   6.595  0.1413  0.3433 -0.1100
    1W        W33069   9.601   8.942   2.691  0.0250 -0.0243  0.1633
    1W        W33070   5.607   6.529   1.217  0.0960 -0.2317  0.4576
    1W        W33071   2.029   4.356   0.983 -0.0651  0.2636 -0.2968
    1W        W33072  28.922  11.627   0.995 -0.1567 -0.0836 -0.1150
    1W        W33073  29.041  19.049   0.023  0.1278 -0.1290 -0.3048
    1W        W33074  15.205   8.834   8.818  0.0091 -0.1158  0.1700
    1W        W33075  17.909   2.680   1.875  0.1281  0.0215 -0.1944
    1W        W33076   7.277  18.110   8.985  0.2923 -0.1147 -0.3334
    1W        W33077   0.213  24.505   9.207  0.0867 -0.2028 -0.3158
    1W        W33078  14.025  18.635   8.818  0.3856  0.2297  0.0594
    1W        W33079  29.551  20.747   8.259  0.0841 -0.1200 -0.1528
    1W        W33080  28.188  11.913   2.752  0.1655 -0.2980  0.1442
    1W        W33081  20.895   4.928   3.309 -0.0308 -0.4751 -0.0423
    1W        W33082  25.876   7.898   1.018  0.0907 -0.0144  0.1717
    1W        W33083  24.312   9.123   0.406  0.2414 -0.1289  0.0027
    1W        W33084   7.270   9.277   9.088 -0.2606 -0.0136  0.2376
    1W        W33085   9.935  11.093   7.672  0.0190 -0.0798  0.0445
    1W        W33086  15.352   1.068   7.358 -0.3091 -0.3254 -0.2187
    1W        W33087  20.902   8.807   0.833  0.1467 -0.0471 -0.1443
    1W        W33088   3.303   1.123   9.140  0.0158 -0.0491  0.0890
    1W        W33089  19.891   6.224   9.475 -0.1605 -0.1659  0.1078
    1W        W33090  20.757   9.422   3.287 -0.3068 -0.1887 -0.0190
    1W        W33091  15.639  28.736   9.364  0.0115  0.2033 -0.2641
    1W        W33092   1.467   1.015   6.306  0.0382  0.3854 -0.0749
    1W        W33093   3.504  20.717   2.087  0.2026  0.0801  0.1307
    1W        W33094   2.945  27.929   2.083 -0.0804 -0.1926 -0.0246
    1W        W33095  13.934  29.598   1.756  0.1219 -0.0479  0.2671
    1W        W33096  14.119  10.155   3.017 -0.0088  0.0143  0.2304
    1W        W33097  16.788  22.674   8.782  0.0051 -0.2208 -0.5357
    1W        W33098  28.913   1.221   2.323  0.2103 -0.1088 -0.1620
    1W        W33099   0.009  25.400   0.912 -0.2075  0.0928  0.1582
    1W        W33100  15.858   2.792   1.560 -0.0144 -0.2147 -0.0854
    1W        W33101  21.025   5.455   9.118 -0.4666 -0.0399 -0.0512
    1W        W33102  20.346   8.144   9.210 -0.1684  0.0602  0.0401
    1W        W33103  14.667  12.046   2.051  0.2241 -0.0126  0.2669
    1W        W33104  17.131  17.389   0.225  0.0008  0.2393 -0.0109
    1W        W33105   9.000  20.877   7.563 -0.2814 -0.3217  0.2078
    1W        W33106   4.042   2.066   6.828 -0.0536 -0.0351  0.1284
    1W        W33107  16.048   2.090   2.659 -0.0514 -0.0309  0.0459
    1W        W33108  11.367  22.335   8.763  0.0936 -0.4564  0.0712
    1W        W33109   9.860  14.892   7.448 -0.0896  0.1241  0.0240
    1W        W33110  14.790   0.647   1.158  0.2509  0.0422  0.1454
    1W        W33111  25.021   7.087   7.631 -0.0195  0.2551  0.2799
    1W        W33112  22.187  26.872   6.699  0.3656  0.1285 -0.1813
    1W        W33113   6.252  24.588   8.523  0.1148  0.1559  0.0629
    1W        W33114  12.424  10.472   2.030  0.1803 -0.1714  0.2666
    1W        W33115  13.525   5.177   7.717  0.0275  0.1043 -0.4099
    1W        W33116   6.801  22.988   9.518  0.0175  0.1231  0.1683
    1W        W33117   0.484  12.156   7.334  0.2232 -0.2538 -0.2834
    1W        W33118  28.868  11.847   7.765  0.0589  0.2094  0.0004
    1W        W33119  25.357   2.136   8.343 -0.4535 -0.0224  0.1516
    1W        W33120   2.565   4.061   8.086 -0.2211  0.1850 -0.2080
    1W        W33121  20.583  25.396   7.245  0.3633  0.1606 -0.1355
    1W        W33122  14.254  20.511   0.978  0.1095 -0.0846 -0.2618
    1W        W33123   1.571  20.305   9.083 -0.1239  0.1019  0.0749
    1W        W33124  26.693   7.330   8.757  0.0031 -0.3377 -0.1578
    1W        W33125   8.953  26.872   5.815 -0.1811  0.0627  0.2288
    1W        W33126   2.523   9.822   2.319  0.0240  0.1154 -0.3197
    1W        W33127  29.716   7.555   8.365 -0.0112  0.0108  0.1983
    1W        W33128   9.013   0.437   8.409  0.0392  0.0030  0.2320
    1W        W33129  17.294   8.393   2.636 -0.3078 -0.0192  0.0941
    1W        W33130  11.479  23.340   8.430  0.1485  0.0244  0.0819
    1W        W33131  22.959  15.285   8.432  0.0412  0.0192 -0.1723
    1W        W33132  15.976  20.805   6.113 -0.2632  0.0369 -0.3076
    1W        W33133  19.648  22.159   0.951 -0.0569  0.2242 -0.0631
    1W        W33134  16.559   4.757   4.036 -0.1179 -0.0527  0.0813
    1W        W33135   3.041  10.660   8.339 -0.3252 -0.1399 -0.2147
    1W        W33136  21.023  11.366   8.747  0.0197 -0.0341  0.3266
    1W        W33137   8.245  21.631   8.765  0.1266 -0.0178  0.1486
    1W        W33138  14.307   3.169   7.781  0.0390 -0.0794 -0.4959
    1W        W33139  15.196  21.520   5.280 -0.3038 -0.3775 -0.0350
    1W        W33140  18.019   1.617   7.966 -0.3649  0.1257 -0.1561
    1W        W33141   3.486  22.308   8.500 -0.2536 -0.1887 -0.1865
    1W        W33142  17.618  21.149   6.017  0.0224  0.2674  0.0076
    1W        W33143  28.411  27.464   2.070 -0.1060 -0.0796  0.1766
    1W        W33144  24.564  20.188   1.892 -0.0588  0.0194 -0.0146
    1W        W33145   4.195   7.104   9.101 -0.3212  0.2376 -0.1976
    1W        W33146  29.191   1.232   8.455  0.1811  0.1679 -0.0103
    1W        W33147  27.056  17.069   7.801  0.1868 -0.0384  0.0821
    1W        W33148  27.662  12.735   7.634 -0.3056 -0.0898  0.2459
    1W        W33149   4.924   7.181   2.201 -0.2715  0.0499  0.0075
    1W        W33150  26.018  26.393   9.252 -0.0907 -0.0066 -0.2300
    1W        W33151  23.396   7.870   0.552  0.0339  0.0600 -0.2064
    1W        W33152  24.802  26.854   8.558  0.1884  0.1911  0.1111
    1W        W33153  25.690   7.265   8.250  0.2904  0.2622 -0.0202
    1W        W33154   9.307  21.084   8.111 -0.0117  0.1233 -0.5933
    1W        W33155  13.875  22.001   8.642  0.2359  0.2727  0.0364
    1W        W33156  25.269  10.571   2.690 -0.0150 -0.1325  0.1379
    1W        W33157  20.200  19.248   0.314  0.1410  0.0918 -0.3394
    1W        W33158  16.863   8.240   9.491 -0.0638  0.2805 -0.2136
    1W        W33159  13.841  20.869   7.930 -0.5061 -0.2451 -0.1591
    1W        W33160  28.415  11.083   8.401  0.2935 -0.0067 -0.0574
    1W        W33161   6.200  20.710   0.573  0.0844  0.2104 -0.1466
    1W        W33162  19.962   6.452   9.051 -0.0192  0.1980  0.0773
    1W        W33163  28.968   7.275   2.330  0.1653  0.2563  0.4003
    1W        W33164  24.753  22.612   0.010 -0.2604  0.0555 -0.1284
    1W        W33165  27.459  19.880   7.018  0.0117  0.1499 -0.2732
    1W        W33166  19.968  19.025   8.702  0.0834 -0.0096 -0.1066
    1W        W33167  14.790  17.685   9.394 -0.2193 -0.0422  0.0725
    1W        W33168  25.253   3.549   2.717  0.3144  0.0071 -0.0029
    1W        W33169  21.046  10.258   1.791  0.0747 -0.2800 -0.1762
    1W        W33170  28.857   8.089   1.947 -0.0386  0.0026  0.2536
    1W        W33171  19.987  25.903   1.776  0.0515 -0.2321  0.1305
    1W        W33172  22.266  20.656   8.410  0.1265  0.1788  0.0439
    1W        W33173   8.189  20.702   1.356  0.3140  0.1304  0.0585
    1W        W33174  10.174  12.678   8.673 -0.3187 -0.2874  0.0720
    1W        W33175  14.037   5.547   2.459  0.1867  0.0979  0.2591
    1W        W33176   9.456   6.923   0.672  0.0324 -0.0418 -0.2347
    1W        W33177   9.553  10.707   0.201  0.4161  0.0367 -0.1556
    1W        W33178   1.300  13.954   0.743  0.2164  0.1153 -0.1380
    1W        W33179   9.113  27.312   6.659  0.0364  0.1486 -0.0444
    1W        W33180  17.871  29.406   2.204 -0.0315  0.0102  0.0213
    1W        W33181  13.878   9.179   0.792 -0.0512  0.0453 -0.0935
    1W        W33182  18.952  23.535   7.001  0.2329 -0.0361  0.0517
    1W        W33183   3.221  22.350   5.864 -0.0552  0.1888 -0.1241
    1W        W33184  18.911  13.048   8.380  0.2092 -0.0030  0.1244
    1W        W33185  18.951  20.661   8.673  0.1123  0.3364 -0.0279
    1W        W33186  23.181  13.697   8.898  0.1515  0.0855 -0.0479
    1W        W33187   1.575  25.439   0.218 -0.3406  0.3193  0.0000
    1W        W33188  26.899  10.065   8.729  0.0086 -0.1031 -0.1443
    1W        W33189  15.220   1.287   2.691 -0.0781  0.3116  0.1348
    1W        W33190  10.100  21.706   5.534  0.3857  0.1498  0.0806
    1W        W33191  20.894  16.699   0.097 -0.2682  0.0083  0.0539
    1W        W33192  11.867   8.111   8.030  0.2652 -0.0618  0.0093
    1W        W33193  16.476  14.082   0.887 -0.0558 -0.2300 -0.0034
    1W        W33194  23.508  26.333   7.151 -0.1737  0.3333 -0.1784
    1W        W33195  19.258   2.276   8.160  0.0819 -0.3043 -0.2720
    1W        W33196  19.803   6.773   1.430  0.1737  0.1763  0.2282
    1W        W33197   8.996  11.818   8.631  0.0727  0.2670 -0.4033
    1W        W33198  23.092  19.380   6.372  0.0901  0.0188 -0.0982
    1W        W33199  29.583  11.564   7.541  0.4357 -0.0017 -0.0031
    1W        W33200  26.603  29.252   7.100 -0.0791  0.0762 -0.0817
    1W        W33201  11.447  14.122   7.937  0.0765  0.3086  0.1555
    1W        W33202   6.476  15.059   0.235 -0.0205 -0.3760 -0.3303
    1W        W33203  17.596   4.883   1.906 -0.1243 -0.2069  0.0733
    1W        W33204  22.810   5.621   3.090 -0.0416 -0.5317 -0.0851
    1W        W33205  12.864   4.217   8.363 -0.3482 -0.0264  0.1920
    1W        W33206   1.490  14.311   7.690 -0.1424 -0.2328  0.2592
    1W        W33207  22.811  20.071   1.212 -0.0405 -0.0822 -0.0365
    1W        W33208  22.951  15.329   1.409  0.0843 -0.0827  0.0220
    1W        W33209  29.077  17.726   2.224  0.3898 -0.1032 -0.1530
    1W        W33210  26.747  18.809   8.181  0.2618 -0.0076  0.2643
    1W        W33211  29.448   9.044   9.520  0.1985 -0.2644  0.0745
    1W        W33212  12.771  21.749   7.229 -0.1700 -0.0601  0.0426
    1W        W33213  23.669  22.574   8.534  0.1554  0.3825  0.2824
    1W        W33214  21.776  26.211   1.324 -0.1596  0.0871  0.0070
    1W        W33215  28.602   5.938   9.271 -0.1268  0.1393  0.1901
    1W        W33216  10.497  19.468   6.896  0.1241  0.0901 -0.0471
    1W        W33217  11.340  15.452   1.061  0.2688 -0.0794  0.3665
    1W        W33218  21.004  29.063   2.447 -0.0970 -0.0932 -0.0280
    1W        W33219  17.565  22.256   8.938  0.0072 -0.1812 -0.1160
    1W        W33220   5.712  20.802   9.382  0.0302  0.0976 -0.2107
    1W        W33221  11.794  25.450   0.637  0.0202 -0.3542 -0.0760
    1W        W33222  18.500   0.870   2.045 -0.0442  0.1139 -0.0754
    1W        W33223  16.638  19.947   0.125  0.0229  0.1163 -0.1074
    1W        W33224  28.628  21.618   9.464 -0.1097 -0.1810  0.2056
    1W        W33225  22.765   4.199   8.505  0.2305 -0.1218 -0.0869
    1W        W33226  27.163  12.554   7.872 -0.3328 -0.1066 -0.1927
    1W        W33227  22.421  18.819   6.646 -0.0638  0.0420  0.2006
    1W        W33228   2.058  26.625   7.506  0.0295 -0.1133 -0.1893
    1W        W33229   2.044  17.637   8.054  0.1547 -0.1289  0.3385
    1W        W33230  24.197   6.861   0.330 -0.3955 -0.0957  0.0510
    1W        W33231  21.371  16.081   0.649  0.2334  0.0345 -0.2851
    1W        W33232  10.881   1.304   0.673 -0.0150 -0.2148  0.0034
    1W        W33233  16.160   4.213   0.597 -0.0417  0.2889  0.1096
    1W        W33234  23.120   2.945   0.554 -0.1985  0.1677  0.2279
    1W        W33235  24.648   9.865   1.696 -0.1789 -0.2207  0.0363
    1W        W33236  11.505   7.796   8.038  0.1425  0.0768  0.1570
    1W        W33237  29.467   4.489   2.367 -0.1088 -0.0566  0.3372
    1W        W33238   5.139  16.356   0.894  0.0565  0.0394  0.0506
    1W        W33239  12.283  23.891   6.672 -0.1773  0.0971 -0.0766
    1W        W33240   8.385   3.940   8.578 -0.0890  0.0652 -0.0158
    1W        W33241  25.354  10.481   1.108 -0.0540  0.0684  0.2027
    1W        W33242   5.968   2.312   0.119  0.0592  0.1766 -0.0331
    1W        W33243   4.062  18.763   0.238  0.3656  0.0468 -0.0953
    1W        W33244   1.382   3.330   7.851 -0.1503  0.0959  0.0142
    1W        W33245  23.269  14.058   1.509  0.0617  0.0561 -0.0981
    1W        W33246  12.549  20.292   7.697 -0.0925  0.3496 -0.3955
    1W        W33247  18.259  16.504   9.315 -0.2785 -0.2496  0.0831
    1W        W33248  12.636  13.043   1.815 -0.0550  0.0937  0.0973
    1W        W33249   3.423  18.569   0.561  0.0596 -0.3227 -0.1118
    1W        W33250  22.293   1.135   1.146  0.1605 -0.1340 -0.2519
    1W        W33251  24.988  16.571   8.721 -0.0824  0.1216 -0.0976
    1W        W33252   0.227  23.457   8.141 -0.2500  0.1838  0.3991
    1W        W33253  14.219  14.421   1.823 -0.0479 -0.1236 -0.0217
    1W        W33254  15.824  28.906   1.264 -0.2604  0.2464 -0.3436
    1W        W33255  26.701  21.951   8.330 -0.0103 -0.0684  0.1891
    1W        W33256  19.946  19.301   2.056  0.0552  0.0268  0.1883
    1W        W33257  10.203   2.696   9.059  0.0123  0.3161 -0.4456
    1W        W33258  16.757  28.223   9.126  0.1523  0.1465 -0.0996
    1W        W33259  21.948   0.020   8.892 -0.0513  0.1090 -0.2664
    1W        W33260   0.116  27.362   8.996 -0.0375 -0.1633 -0.1510
    1W        W33261  24.034  20.141   7.201 -0.1015 -0.0034 -0.3103
    1W        W33262  26.936  21.092   7.570 -0.0177  0.0118 -0.0170
    1W        W33263  22.028  23.747   9.434  0.1034  0.0800  0.0324
    1W        W33264  18.141  27.731   0.802  0.4049  0.3994 -0.2101
    1W        W33265  25.707  25.648   3.266 -0.0289  0.2586 -0.0745
    1W        W33266  26.781  22.199   1.803  0.2018  0.0112  0.2667
    1W        W33267  12.261  17.995   1.501  0.1182  0.1287 -0.1271
    1W        W33268   7.830  11.797   6.792  0.0114 -0.1070  0.0689
    1W        W33269  29.587   2.650   8.349  0.1082  0.3006  0.0202
    1W        W33270   7.110  17.845   7.250 -0.1449 -0.2314  0.1498
    1W        W33271  10.741  19.115   8.652 -0.0227  0.2028 -0.1768
    1W        W33272  11.748  22.652   5.788  0.0866  0.3142 -0.3898
    1W        W33273  20.760  20.961   0.158 -0.2276  0.2398 -0.2542
    1W        W33274  25.759   4.177   0.549 -0.0875  0.0444  0.1776
    1W        W33275   8.482  19.977   6.857  0.1938  0.1092  0.1151
    1W        W33276   0.010  29.246   1.546  0.3489 -0.0681  0.1806
    1W        W33277   7.551   8.343   8.086  0.2291  0.1311 -0.3755
    1W        W33278  24.884  19.464   6.182  0.0074 -0.1059 -0.1365
    1W        W33279   5.396  10.979   0.721 -0.3057 -0.0166 -0.1477
    1W        W33280  25.127  28.882   8.873  0.0988 -0.1472  0.1596
    1W        W33281   5.322  20.358   8.747  0.1504 -0.1885  0.0121
    1W        W33282  28.471  11.268   2.271 -0.0573 -0.0206  0.2041
    1W        W33283  21.412  23.025   2.036 -0.1403 -0.0301 -0.1232
    1W        W33284  16.877  16.514   9.276 -0.1263 -0.1051 -0.2307
    1W        W33285  10.077   3.897   2.150  0.0320 -0.0441 -0.0418
    1W        W33286  14.634  13.057   7.462 -0.2119 -0.0176  0.1998
    1W        W33287  24.212  12.855   7.688  0.0555 -0.0092  0.2354
    1W        W33288   6.068   2.245   2.657 -0.0224 -0.0797 -0.0585
    1W        W33289   0.133   8.436   9.111  0.2348  0.0258  0.0643
    1W        W33290  12.971   5.493   2.884  0.0810 -0.1037  0.0435
    1W        W33291  29.359  18.915   2.487 -0.4871 -0.1507  0.2493
    1W        W33292  14.368  14.607   8.731 -0.0168  0.1389  0.0113
    1W        W33293  28.613  21.349   1.624  0.1363  0.1159 -0.2205
    1W        W33294   1.374  11.588   1.343 -0.0713  0.1097 -0.0098
    1W        W33295  17.250  13.998   2.913 -0.1977  0.2916  0.1121
    1W        W33296   5.426  18.310   2.018  0.0157  0.5053  0.3325
    1W        W33297   0.118  12.041   1.721  0.1006 -0.0381  0.0531
    1W        W33298  15.802  28.887   2.924 -0.1030 -0.0456 -0.2245
    1W        W33299  11.568  16.439   8.974 -0.1258 -0.2830  0.2663
    1W        W33300  22.141  21.714   1.344  0.1139  0.1250  0.3091
    1W        W33301  14.934   1.446   3.171 -0.0019  0.2315 -0.1967
    1W        W33302  17.943  25.455   7.910  0.2327  0.5022 -0.1841
    1W        W33303   8.541  16.546   6.083  0.1701  0.1289  0.6397
    1W        W33304  13.276  17.449   7.825  0.0009  0.1758 -0.0232
    1W        W33305   4.775   2.370   0.854  0.2539 -0.1494 -0.0285
    1W        W33306  15.314  20.797   0.653 -0.1274  0.3056 -0.1835
    1W        W33307  15.278   2.611   8.914 -0.0841 -0.1520  0.0176
    1W        W33308  20.597  29.641   2.973  0.0617 -0.0644 -0.0339
    1W        W33309  25.718   9.881   1.263 -0.1292  0.3186 -0.4034
    1W        W33310  11.299  25.071   6.568  0.0750  0.0263 -0.1812
    1W        W33311   1.620   9.375   0.303 -0.0037 -0.1030  0.2727
    1W        W33312   4.632  27.659   7.111  0.1200  0.0054  0.0867
    1W        W33313   7.013   2.124   1.263  0.0720 -0.0956 -0.0581
    1W        W33314  23.947   5.119   7.874  0.0426 -0.3537 -0.0177
    1W        W33315   5.430   3.339   2.927 -0.2247 -0.1931 -0.2272
    1W        W33316  25.773  10.345   1.374 -0.3552 -0.1073 -0.0183
    1W        W33317   1.241  15.527   6.231  0.1425 -0.0530 -0.2741
    1W        W33318  23.099  25.259   8.847  0.0209  0.0399  0.0346
    1W        W33319   3.373  17.603   2.133 -0.2951  0.0078  0.1900
    1W        W33320  13.317   0.049   3.134  0.0129  0.1314 -0.6041
    1W        W33321   8.007   8.771   8.762  0.1497 -0.1211 -0.0872
    1W        W33322  20.347  28.465   8.605 -0.1278 -0.2486 -0.0244
    1W        W33323  22.065  18.838   6.281  0.4980 -0.0004 -0.1614
    1W        W33324  11.016   7.344   3.074  0.1050  0.1774 -0.2159
    1W        W33325  18.233  22.512   1.601 -0.4594 -0.0237 -0.1311
    1W        W33326  11.773  24.925   5.884 -0.3218 -0.1130  0.0640
    1W        W33327  23.270   4.745   3.075  0.0759 -0.3222  0.0971
    1W        W33328   7.332  28.248   2.009  0.0552  0.1084 -0.1595
    1W        W33329  13.177  23.422   0.911 -0.2647 -0.0941  0.4833
    1W        W33330   2.331   8.758   2.233 -0.1400 -0.2834  0.1104
    1W        W33331  15.611  19.137   6.831 -0.0984  0.0911 -0.0715
    1W        W33332  27.847   0.932   1.941 -0.1038  0.0600  0.1254
    1W        W33333   5.261  15.623   2.097 -0.0847  0.0529  0.1376
    1W        W33334   3.405  13.974   6.537 -0.1156 -0.1900  0.0574
    1W        W33335  11.819  24.366   7.245 -0.1458 -0.2550 -0.3320
    1W        W33336  18.377  20.059   9.337  0.2172  0.1938  0.3469
    1W        W33337  10.708  24.011   1.296  0.1712 -0.2843  0.0137
    1W        W33338  29.035   3.627   9.483  0.0702 -0.0119  0.3040
    1W        W33339  20.750  12.828   1.988  0.0290  0.0532  0.1316
    1W        W33340  15.360  26.066   6.631 -0.3158 -0.1039 -0.1594
    1W        W33341   7.803  26.754   2.237 -0.1845 -0.2516  0.2062
    1W        W33342  29.189   1.574   9.480  0.1113  0.0142 -0.0626
    1W        W33343   8.715  26.807   9.277 -0.2395 -0.0237 -0.0053
    1W        W33344   7.022  17.749   2.748 -0.2914  0.1307 -0.0129
    1W        W33345  25.072   9.728   1.412  0.0785  0.0883  0.1685
    1W        W33346  11.473  18.049   7.212  0.0419  0.2170  0.3478
    1W        W33347   9.259   3.698   0.087  0.1089  0.3165  0.1185
    1W        W33348  22.933  12.793   0.638 -0.1007  0.0038  0.0651
    1W        W33349   4.353  24.424   5.747 -0.1040  0.0152  0.0743
    1W        W33350  19.962   5.543   0.331 -0.1802 -0.2435 -0.0692
    1W        W33351   9.772  20.622   6.435  0.1875 -0.0559 -0.2165
    1W        W33352  12.248  24.167   0.578  0.0684 -0.0380 -0.0280
    1W        W33353  15.147  20.753   6.544  0.0786  0.2344  0.0097
    1W        W33354  21.313  18.882   1.382 -0.0247  0.2059 -0.0921
    1W        W33355  17.655   1.796   0.448 -0.0260 -0.0358  0.1207
    1W        W33356  28.742  16.658   6.279 -0.1593  0.0093  0.1557
    1W        W33357  13.761  17.895   0.985  0.1692 -0.1257  0.0810
    1W        W33358  27.633   6.770   9.297 -0.1271  0.0535 -0.0011
    1W        W33359   0.701   1.582   0.264  0.1035  0.4435 -0.2798
    1W        W33360  27.992  23.242   7.783  0.1329 -0.1692 -0.2264
    1W        W33361  27.776  22.902   1.124 -0.0226 -0.3919 -0.3701
    1W        W33362  11.362  11.127   0.540 -0.1158  0.1575  0.1141
    1W        W33363  10.894  16.569   7.237  0.2075 -0.0277  0.1598
    1W        W33364  12.672   4.509   7.252  0.2182 -0.2839 -0.0938
    1W        W33365  11.721  21.593   0.665 -0.2598 -0.2232 -0.3140
    1W        W33366  28.729  25.629   7.595 -0.2608  0.1178  0.0734
    1W        W33367  23.226  15.911   0.574  0.1862 -0.0666 -0.2341
    1W        W33368  21.113   1.642   8.562 -0.1095  0.1769  0.1064
    1W        W33369  16.206  19.894   7.222 -0.0008  0.0851  0.2061
    1W        W33370  18.993   8.664   7.760  0.0299  0.0065 -0.0061
    1W        W33371  10.834  15.611   0.396 -0.0332  0.3142  0.1579
    1W        W33372  14.751  12.918   8.463  0.3375 -0.0024 -0.0858
    1W        W33373  25.240   8.417   8.709 -0.0390 -0.4260  0.5202
    1W        W33374  20.096   2.151   3.980  0.1447  0.0193  0.2421
    1W        W33375  27.464  20.023   2.143 -0.3369  0.1511 -0.1018
    1W        W33376  23.590  19.676   1.587  0.1529 -0.1262 -0.0138
    1W        W33377  25.564  22.564   0.294  0.1174  0.2761  0.1694
    1W        W33378  25.344   1.578   0.282  0.1168 -0.1449 -0.1171
    1W        W33379  13.861  13.019   0.231 -0.2143 -0.1715 -0.2004
    1W        W33380  20.747  23.097   1.668 -0.0066  0.0990  0.0857
    1W        W33381   6.316  21.058   2.036  0.1118  0.0496 -0.1114
    1W        W33382   9.813  22.087   9.398  0.1601 -0.2188  0.0798
    1W        W33383  13.317   6.810   1.717 -0.0580  0.1758 -0.1036
    1W        W33384  24.564  19.917   7.614  0.1176  0.0279  0.0138
    1W        W33385  21.892   2.567   2.111 -0.0985  0.2717 -0.4410
    1W        W33386  23.125   5.752   7.338 -0.2006 -0.3471  0.0587
    1W        W33387  14.627   8.371   0.768  0.1741 -0.0582 -0.2081
    1W        W33388   0.621   7.309   1.242  0.1559 -0.0965  0.0535
    1W        W33389  29.794  22.821   2.638  0.1547  0.3610  0.1823
    1W        W33390  17.366  26.971   8.900  0.0835  0.0518  0.2587
    1W        W33391  23.234  22.512   2.408  0.2185  0.0083  0.1851
    1W        W33392  29.812  15.916   2.105  0.2160  0.2497  0.2206
    1W        W33393  28.747   8.140   3.109 -0.1668  0.2219  0.1018
    1W        W33394  21.190  14.183   2.270 -0.0042  0.0225  0.1579
    1W        W33395  17.037  16.492   0.688 -0.0073 -0.1575  0.3317
    1W        W33396  15.244  11.685   8.995 -0.1484 -0.4397  0.4097
    1W        W33397  28.821  20.453   0.725 -0.0561 -0.0397  0.2242
    1W        W33398   8.756   3.089   3.748 -0.0914  0.0558  0.2962
    1W        W33399  13.312  28.752   8.805 -0.1733 -0.0317 -0.1890
    1W        W33400   5.165  13.457   8.798 -0.2260 -0.0372  0.2073
    1W        W33401  17.335   4.054   3.338 -0.0032 -0.2798  0.0187
    1W        W33402   5.238  11.230   1.812 -0.0413 -0.1532  0.0169
    1W        W33403  16.230  21.973   6.684  0.1483  0.0784  0.1467
    1W        W33404   3.430   4.731   8.143  0.2219  0.0971  0.1379
    1W        W33405  25.835   1.528   2.332 -0.3157  0.0507  0.0054
    1W        W33406   3.498  27.038   1.085  0.1481  0.0104  0.1304
    1W        W33407  27.038  21.533   0.655  0.0477  0.0933  0.0800
    1W        W33408  12.796   4.815   4.180 -0.1296  0.0479  0.0840
    1W        W33409  22.520   1.406   9.221 -0.0050  0.1036  0.0105
    1W        W33410  14.342   3.740   3.546 -0.0464  0.0707 -0.0354
    1W        W33411   9.061  13.959   2.246  0.1938  0.1490  0.2709
    1W        W33412  11.075  27.414   7.241  0.0459  0.0891  0.0654
    1W        W33413  14.617   2.720   1.415 -0.2893 -0.0858  0.3258
    1W        W33414  29.087  24.518   0.706 -0.1986 -0.1639 -0.1349
    1W        W33415  27.868   2.327   3.115  0.0627  0.1366  0.1515
    1W        W33416  11.429   4.435   3.008  0.2245  0.1085 -0.1102
    1W        W33417   8.081  13.500   7.296 -0.2698 -0.1457 -0.1034
    1W        W33418  19.840  27.264   0.860 -0.0437  0.0071 -0.3709
    1W        W33419  22.902  29.443   7.341  0.2773  0.0396 -0.0277
    1W        W33420  26.694  25.250   0.538  0.0515  0.2074 -0.0757
    1W        W33421   9.898  17.894   9.000 -0.1945 -0.1307 -0.3037
    1W        W33422  23.753   8.419   1.729  0.0794 -0.0067 -0.0876
    1W        W33423  18.472   5.245   2.331  0.2555  0.1676  0.0172
    1W        W33424  27.031  19.414   9.022 -0.0133 -0.1389 -0.1747
    1W        W33425   4.242   9.487   6.386 -0.0464  0.1227 -0.0866
    1W        W33426   3.627   7.941   1.076  0.0580  0.1617  0.0320
    1W        W33427  27.936   4.131   0.242  0.2637 -0.0611  0.1694
    1W        W33428  22.223  16.894   1.599 -0.0436 -0.1773  0.2211
    1W        W33429  14.555   3.316   8.651 -0.1101 -0.0129  0.0253
    1W        W33430  18.269  12.723   9.527  0.2126 -0.1360  0.1029
    1W        W33431  17.702  17.240   8.037  0.0042  0.2394 -0.0769
    1W        W33432  19.981   6.150   3.206  0.1018  0.2942 -0.2548
    1W        W33433   9.698  12.516   1.363  0.0237  0.0612  0.3466
    1W        W33434   5.521  18.696   1.718 -0.1603 -0.0047 -0.0805
    1W        W33435  18.642  21.235   1.029  0.1411  0.0571  0.1022
    1W        W33436  27.913  28.378   2.809  0.0271  0.3147  0.0582
    1W        W33437  24.506  17.368   0.302 -0.2476 -0.0139  0.1558
    1W        W33438   3.913  22.339   6.964  0.0754  0.1977 -0.4176
    1W        W33439  17.136  12.689   7.964  0.1026 -0.1090 -0.0505
    1W        W33440  28.763   6.782   6.555  0.0759 -0.2315 -0.1287
    1W        W33441   0.193  27.414   6.380 -0.2080  0.2763 -0.0357
    1W        W33442  14.814  26.099   6.455 -0.0536 -0.0466  0.0865
    1W        W33443   3.455  27.156   8.575  0.0950 -0.0399  0.2195
    1W        W33444  12.520   4.029   7.922  0.1188  0.0739  0.1258
    1W        W33445  24.432  27.459   3.226 -0.2247  0.1831 -0.1590
    1W        W33446   4.117  12.988   0.422  0.2887 -0.3173 -0.2599
    1W        W33447  21.840   2.051   8.492 -0.1622  0.0758 -0.3084
    1W        W33448  13.049   9.444   0.921 -0.0837  0.0269  0.2464
    1W        W33449   2.605   5.758   2.837  0.3927  0.0887  0.1040
    1W        W33450   2.607   8.338   7.809 -0.0751  0.1760  0.0392
    1W        W33451  21.938   3.725   8.917 -0.2418 -0.1266  0.0650
    1W        W33452   2.011   2.290   9.497 -0.0572  0.4389 -0.1331
    1W        W33453   3.244  21.144   7.416 -0.0729  0.0971 -0.2178
    1W        W33454  18.722   5.402   2.806  0.0204 -0.0493 -0.0725
    1W        W33455  19.731  21.178   0.911  0.0922  0.2041  0.0116
    1W        W33456   7.589  14.247   1.928 -0.3291 -0.2459  0.0153
    1W        W33457   5.081  19.349   6.087  0.1019  0.4003 -0.3622
    1W        W33458   4.448  20.574   1.629  0.1680  0.1775  0.0484
    1W        W33459   5.566  23.178   8.101 -0.1464  0.1221 -0.0179
    1W        W33460  20.953  15.995   1.604  0.0146  0.0741 -0.0065
    1W        W33461  12.782   6.663   0.202 -0.2168 -0.0783  0.0311
    1W        W33462   7.241   8.152   2.499  0.1067  0.3165 -0.0094
    1W        W33463   0.594  20.458   8.742 -0.1321 -0.1279  0.0760
    1W        W33464  17.690  18.945   1.174  0.4985  0.0024  0.0423
    1W        W33465  15.808   7.528   7.771  0.0023 -0.0420  0.0664
    1W        W33466  12.873  23.726   1.272  0.3398  0.1429 -0.1817
    1W        W33467  18.954  17.259   1.707 -0.0100 -0.0241  0.3342
    1W        W33468   1.758  27.262   5.116 -0.0442 -0.0525  0.1002
    1W        W33469  13.654  29.269   0.359 -0.1941 -0.2152  0.0958
    1W        W33470  26.328  18.459   7.680  0.0666  0.2341 -0.0869
    1W        W33471  13.364  16.503   9.228  0.1687  0.2917 -0.1001
    1W        W33472   4.023  25.359   6.106 -0.2755 -0.2248  0.0925
    1W        W33473  14.298   8.137   2.538 -0.1529 -0.1252  0.0196
    1W        W33474  25.994  15.650   2.687  0.1036 -0.1783 -0.0862
    1W        W33475  10.884  11.034   8.429  0.2204 -0.3340 -0.0156
    1W        W33476   4.013  27.707   8.971  0.0051 -0.1342 -0.3347
    1W        W33477  29.492  18.713   7.584 -0.2759  0.1401  0.2444
    1W        W33478   3.590  10.025   8.425  0.1058 -0.0918 -0.0080
    1W        W33479   8.616   4.349   0.870 -0.3751  0.0915  0.3061
    1W        W33480   7.517  25.792   7.619  0.3435  0.0976  0.2593
    1W        W33481  16.887   7.719   1.257  0.2028 -0.1468 -0.1393
    1W        W33482  15.044  27.449   7.053 -0.0197 -0.1917  0.1265
    1W        W33483  14.446   6.294   1.410  0.1326  0.0659 -0.2069
    1W        W33484  23.880  24.464   1.337  0.0363  0.0810  0.2361
    1W        W33485  10.306  25.260   9.367  0.0825  0.1877 -0.2313
    1W        W33486  19.023   7.964   8.500  0.0095  0.1837  0.0474
    1W        W33487  28.992   0.205   1.522 -0.0181 -0.1178  0.0725
    1W        W33488  18.566  18.261   9.169  0.0037 -0.1571 -0.2972
    1W        W33489  19.445   7.904   2.170 -0.3358  0.0626  0.0901
    1W        W33490   4.750  24.100   6.643  0.0130  0.0930 -0.0857
    1W        W33491  29.779  20.269   9.105  0.0492 -0.0952  0.0523
    1W        W33492  22.480  27.582   1.744  0.0097 -0.1241  0.0931
    1W        W33493  22.307  19.883   1.458 -0.0990  0.1434 -0.1105
    1W        W33494  11.791  18.731   5.923  0.2301 -0.0217 -0.2160
    1W        W33495  25.200  14.017   1.797 -0.0024 -0.0174 -0.1059
    1W        W33496  23.337  28.570   7.926 -0.0978 -0.2618  0.1672
    1W        W33497   1.657  23.232   7.493  0.2345 -0.0567  0.0374
    1W        W33498  29.260   1.414   7.986 -0.4830  0.3590 -0.2204
    1W        W33499  24.235  15.352   2.493  0.0249 -0.2479 -0.4017
    1W        W33500   0.060   9.618   0.575  0.1717 -0.0030  0.0077
    1W        W33501  28.162  12.758   0.407  0.0418  0.2279 -0.0019
    1W        W33502  10.959   4.214   7.895  0.2471 -0.1135  0.2992
    1W        W33503   0.057  23.891   1.638  0.2855 -0.2116 -0.1110
    1W        W33504   5.338   2.888   3.114  0.1820  0.1053  0.4046
    1W        W33505  10.813   8.237   8.568  0.3533  0.0853  0.0164
    1W        W33506  20.094  21.902   9.150 -0.0604  0.0387  0.0762
    1W        W33507  28.602  11.926   7.164  0.2059  0.1824 -0.3246
    1W        W33508   8.945  12.345   8.062 -0.0909 -0.3271 -0.0054
    1W        W33509  13.890   5.469   3.004  0.0322  0.1548  0.0778
    1W        W33510  11.933  26.792   8.031 -0.1898 -0.0616  0.1813
    1W        W33511  18.130  14.202   1.764  0.1126  0.1626 -0.1326
    1W        W33512  11.164  16.302   6.321  0.3929  0.0469  0.1719
    1W        W33513   6.623   2.295   7.773  0.0498  0.0541 -0.1742
    1W        W33514   8.240  16.215   1.252 -0.3772 -0.1583  0.1213
    1W        W33515  12.611  26.589   0.309  0.1770 -0.0199 -0.0092
    1W        W33516   4.072   6.052   7.827  0.0242  0.2725 -0.0540
    1W        W33517   7.737  23.515   2.074  0.1006  0.0456  0.2372
    1W        W33518   0.463  18.783   8.119 -0.1654 -0.0943 -0.2388
    1W        W33519   4.330  26.837   1.123 -0.0182  0.0972  0.0774
    1W        W33520  17.804  28.658   7.610  0.0806  0.1483  0.1817
    1W        W33521  17.588  20.200   0.522  0.0914 -0.3303 -0.0555
    1W        W33522   2.561   7.332   2.578 -0.3407  0.2376 -0.3251
    1W        W33523  24.295   4.085   0.226 -0.0852 -0.0638 -0.1032
    1W        W33524  25.833   9.740   0.832 -0.0195 -0.0290  0.1049
    1W        W33525  16.682   0.288   1.417 -0.3023 -0.2378  0.2757
    1W        W33526  22.351  24.990   6.845 -0.0779  0.4724 -0.2535
    1W        W33527  14.298   5.934   3.531  0.0768  0.0830 -0.2317
    1W        W33528  23.121   1.536   0.718 -0.1450  0.0292  0.1723
    1W        W33529   9.215  23.698   6.167  0.3003 -0.2203 -0.0088
    1W        W33530   0.551  15.847   8.473  0.2130 -0.2327  0.5084
    1W        W33531   5.285  11.082   8.709  0.4209  0.1892  0.0804
    1W        W33532   5.209   8.452   1.148  0.2016 -0.0239 -0.3066
    1W        W33533   8.831  20.219   6.067  0.2127 -0.0208 -0.0650
    1W        W33534  10.893  13.656   0.419 -0.2149 -0.0933  0.0203
    1W        W33535  17.355  25.899   0.483  0.2256 -0.2818  0.0762
    1W        W33536   5.899  28.338   6.781 -0.5938  0.0431  0.0847
    1W        W33537  22.473  27.712   8.535  0.0911 -0.0725 -0.0202
    1W        W33538   4.019  29.366   1.916  0.2565  0.0604  0.1580
    1W        W33539  23.644  16.566   9.414  0.1617  0.1547  0.1728
    1W        W33540   4.586  11.696   8.875 -0.2639 -0.2314  0.0865
    1W        W33541   5.736  24.769   2.769  0.1758  0.0062  0.1766
    1W        W33542   4.697   7.285   6.519 -0.1036 -0.1098  0.1381
    1W        W33543  27.967   8.524   6.490 -0.2689  0.0183  0.0392
    1W        W33544  29.347  10.421   9.071 -0.0346 -0.0832  0.0205
    1W        W33545  29.792  20.913   7.784 -0.2012  0.0572  0.1609
    1W        W33546  16.912   0.457   8.559 -0.0305  0.0232  0.2392
    1W        W33547  13.390  27.563   7.425  0.0294  0.3093  0.1981
    1W        W33548  16.725  26.663   8.146  0.3026 -0.0667  0.1993
    1W        W33549  25.103   5.290   3.252  0.0519 -0.2123  0.0803
    1W        W33550   5.069  10.467   7.343  0.0165 -0.2318  0.1511
    1W        W33551  21.075  24.161   7.570  0.3039  0.0679  0.0905
    1W        W33552  10.715  18.818   1.911 -0.0174 -0.1535  0.1768
    1W        W33553  27.155  12.845   8.565 -0.0462  0.1508  0.0363
    1W        W33554  21.147  27.999   2.142  0.0018 -0.0665  0.1460
    1W        W33555   9.338  29.080   3.273  0.1306  0.0690  0.1292
    1W        W33556  29.389   1.838   1.353 -0.0540  0.2083  0.1608
    1W        W33557  12.243  12.699   6.353  0.0554 -0.0101 -0.0089
    1W        W33558  13.421  22.526   6.057  0.0433 -0.1582  0.2436
    1W        W33559  25.945  17.879   8.885 -0.2010 -0.0142 -0.2091
    1W        W33560  25.138  26.281   1.326 -0.1226  0.3507 -0.0435
    1W        W33561  17.111  19.565   6.195  0.0562  0.0957 -0.1029
    1W        W33562  15.013   6.690   9.097 -0.0279  0.2557  0.0530
    1W        W33563  12.694  23.825   0.356  0.0368 -0.2620 -0.0061
    1W        W33564  20.904  23.039   2.115  0.0043  0.2601 -0.0870
    1W        W33565  29.378   4.521   1.474  0.0626 -0.0994 -0.0560
    1W        W33566  26.517  21.772   8.841  0.0472  0.1963 -0.1260
    1W        W33567   5.759   7.633   7.370 -0.1635 -0.1968 -0.0772
    1W        W33568  23.319  26.619   6.755 -0.2141  0.1033 -0.0973
    1W        W33569   8.270  14.949   7.672  0.2840 -0.2515 -0.1496
    1W        W33570  11.343  24.464   7.535  0.2826  0.0880 -0.0948
    1W        W33571  11.036   1.151   8.796 -0.0844  0.1845 -0.4281
    1W        W33572  14.874  18.017   7.031 -0.1299 -0.0924 -0.1629
    1W        W33573  20.260  27.923   2.074 -0.0868  0.3481  0.1401
    1W        W33574  17.577  15.514   1.377  0.0151 -0.3127 -0.0115
    1W        W33575   6.816   7.371   9.354 -0.0913 -0.2403 -0.0627
    1W        W33576   9.288  18.306   7.438 -0.1416 -0.2030  0.0399
    1W        W33577  17.387  19.392   1.122 -0.3473 -0.1689  0.3907
    1W        W33578  25.498  13.334   7.228 -0.0042  0.1044  0.0910
    1W        W33579  29.094  26.819   2.799  0.1401  0.0433  0.1590
    1W        W33580  15.352  20.892   7.000  0.3012 -0.1440  0.3347
    1W        W33581  13.860   8.177   1.756  0.0900  0.3978 -0.1976
    1W        W33582  13.747  11.086   8.601  0.1918 -0.0333 -0.1102
    1W        W33583  13.624  18.801   8.053  0.0279 -0.0737  0.5677
    1W        W33584  20.443   2.564   3.900 -0.1592  0.1986 -0.1043
    1W        W33585   2.146   5.201   9.526  0.2212  0.3061 -0.1846
    1W        W33586   1.440   1.505   6.613 -0.1881  0.2397  0.0470
    1W        W33587   3.512  27.352   1.964 -0.0232 -0.1514 -0.2207
    1W        W33588  15.375  19.423   1.866  0.2822  0.0203  0.1224
    1W        W33589   5.552  22.918   6.092 -0.2426  0.1064 -0.1353
    1W        W33590  26.096   5.183   1.976  0.1226 -0.1439  0.1538
    1W        W33591  17.968  15.077   8.928 -0.1638  0.0204 -0.1321
    1W        W33592  16.119   8.703   2.155  0.0072 -0.0138 -0.0395
    1W        W33593   2.316  22.438   0.103  0.2518  0.2205 -0.2230
    1W        W33594  21.780   6.097   2.537  0.2178  0.0752 -0.0290
    1W        W33595  24.561  16.644   7.531 -0.2894 -0.0476  0.0151
    1W        W33596   6.965  16.372   0.258  0.0033  0.2618 -0.2667
    1W        W33597  22.851   8.986   8.509 -0.0511  0.2466  0.2373
    1W        W33598  14.967   5.349   8.438 -0.2003 -0.1655  0.1790
    1W        W33599  20.566   3.597   9.234 -0.1796  0.0013  0.0235
    1W        W33600   8.996  23.482   1.279 -0.2155 -0.0509 -0.1071
    1W        W33601  13.538   0.378   8.018  0.0656 -0.1962 -0.0555
    1W        W33602  20.935  14.650   7.374  0.1228  0.0257  0.0421
    1W        W33603  11.185   9.804   7.522 -0.0752  0.0393 -0.0384
    1W        W33604  20.766   8.719   1.983  0.0340 -0.1397 -0.2068
    1W        W33605  20.901   7.836   7.658  0.0671 -0.0690 -0.1333
    1W        W33606  15.804   6.092   2.847  0.2709 -0.2681  0.3410
    1W        W33607  15.762  28.966   7.639  0.1835 -0.0326 -0.0244
    1W        W33608  18.140  15.644   8.760  0.0728  0.2244  0.1312
    1W        W33609  28.498  21.659   6.814  0.0509 -0.1565  0.2487
    1W        W33610  14.760  27.048   7.155 -0.0655 -0.0401 -0.0291
    1W        W33611   9.929   1.792   0.443 -0.1039  0.2089  0.1266
    1W        W33612  14.682  17.994   6.554  0.5965  0.2552  0.2898
    1W        W33613  29.393   6.096   0.057 -0.2462  0.0526 -0.1175
    1W        W33614  15.466   6.484   3.411 -0.2365  0.2877  0.0354
    1W        W33615  12.882  20.886   0.874  0.0116 -0.0873  0.1451
    1W        W33616  22.257  29.476   8.936 -0.1949  0.1432  0.0383
    1W        W33617   5.366  29.111   8.975 -0.0830 -0.2332  0.2024
    1W        W33618   9.773   1.179   8.801 -0.1057  0.1172 -0.2010
    1W        W33619  11.941  22.425   6.276 -0.1488 -0.0013 -0.0554
    1W        W33620  14.427   3.095   0.986 -0.0531  0.4270  0.4183
    1W        W33621   7.237   1.545   0.285  0.4211  0.0705  0.0062
    1W        W33622  20.121  16.045   0.546 -0.0607 -0.2453  0.3150
    1W        W33623   3.896   4.516   0.517  0.0164  0.1846  0.3809
    1W        W33624  18.566   8.332   2.944 -0.1790 -0.2754  0.0216
    1W        W33625   4.988  23.688   5.880 -0.0463 -0.2909 -0.1546
    1W        W33626  26.761  28.844   9.106  0.6649 -0.1775  0.0539
    1W        W33627  10.606   7.890   8.099 -0.2419  0.3642  0.3303
    1W        W33628   0.605  15.187   1.274  0.0252  0.1726 -0.0485
    1W        W33629  10.974   6.902   1.819 -0.2193  0.0115 -0.0446
    1W        W33630  22.318   1.674   0.146  0.2905 -0.1179 -0.0738
    1W        W33631  14.064   8.836   0.019  0.1156 -0.2022  0.1252
    1W        W33632   0.229  22.593   1.616  0.5055  0.2967  0.1440
    1W        W33633  15.821  17.320   6.475  0.2331  0.2789  0.2801
    1W        W33634  29.517  13.700   9.493 -0.0078 -0.1729  0.0744
    1W        W33635  29.787  13.782   8.085 -0.0967 -0.1940  0.0671
    1W        W33636  17.594  14.925   8.597  0.2478  0.0980  0.3038
    1W        W33637  10.852  13.147   2.047  0.3400  0.3615 -0.1699
    1W        W33638  17.605   1.053   2.419  0.0143  0.0641 -0.3036
    1W        W33639  14.646  28.622   9.484 -0.0315 -0.0536  0.0358
    1W        W33640  23.640  26.778   2.150  0.0402  0.0370  0.1372
    1W        W33641  18.574  26.034   8.859 -0.2161  0.2573  0.0940
    1W        W33642   0.859   2.164   7.041  0.2371 -0.0527 -0.1174
    1W        W33643   6.771  12.572   5.745 -0.2041  0.0573 -0.1435
    1W        W33644   2.905  18.606   7.114 -0.3390  0.0762  0.2364
    1W        W33645   8.377  14.406   0.584 -0.0280 -0.2658 -0.0968
    1W        W33646  25.953  14.701   0.685 -0.0705  0.0711  0.0531
    1W        W33647  10.465  24.788   7.378 -0.1941  0.3023  0.0008
    1W        W33648  21.164  19.978   8.223  0.1776 -0.1770  0.0819
    1W        W33649   4.485  12.685   1.053  0.1247  0.2274  0.0760
    1W        W33650   2.603  27.402   6.301 -0.0497  0.1065 -0.2835
    1W        W33651  12.426   5.984   4.084 -0.0752 -0.2382  0.2227
    1W        W33652  15.400  14.873   8.519  0.0120  0.1300 -0.1601
    1W        W33653  12.792  27.169   2.404  0.3014  0.0099  0.0750
    1W        W33654  16.795  27.569   8.394 -0.1995 -0.0399 -0.2701
    1W        W33655  18.166  15.402   7.979 -0.2863  0.0526  0.0460
    1W        W33656  22.462  23.075   9.062  0.0600  0.3397 -0.0345
    1W        W33657   0.142  29.692   1.376 -0.2895 -0.0230  0.2493
    1W        W33658   0.883   4.044   2.277  0.2160  0.0950 -0.0221
    1W        W33659   3.783  25.515   1.657  0.0561  0.0116 -0.3151
    1W        W33660  11.613  17.644   8.825  0.0510 -0.0621 -0.0775
    1W        W33661  12.662   6.252   1.609  0.3859  0.1557  0.0820
    1W        W33662   7.836   9.469   3.311 -0.0218 -0.1499 -0.1057
    1W        W33663   1.469  26.495   5.682 -0.0685  0.0053 -0.3081
    1W        W33664  23.312   5.206   8.374 -0.2489  0.3362  0.1589
    1W        W33665  14.226  23.735   8.109  0.0301 -0.2664  0.1955
    1W        W33666   6.472   0.365   8.489  0.2096  0.1948 -0.2158
    1W        W33667   6.951  11.085   7.595  0.2314  0.2938  0.4423
    1W        W33668  20.602  13.048   7.485  0.2677 -0.0512 -0.0398
    1W        W33669   7.283  14.278   1.575 -0.1736 -0.3055 -0.1415
    1W        W33670   9.457  12.889   9.437 -0.0815  0.0584  0.2831
    1W        W33671   4.563  13.135   7.728  0.2088  0.0268  0.6292
    1W        W33672   1.895   5.096   0.576 -0.1089 -0.1449  0.0876
    1W        W33673   3.126  21.532   1.572  0.0605 -0.0776 -0.2346
    1W        W33674   8.292  18.659   0.579  0.0415 -0.3643 -0.0993
    1W        W33675  25.790   9.241   0.829  0.2022 -0.1078  0.3289
    1W        W33676  16.213   0.827   3.206  0.1934  0.0583 -0.3442
    1W        W33677  12.998  17.790   8.700  0.0570 -0.0532  0.0823
    1W        W33678   7.907   3.527   8.698  0.1811  0.1373 -0.0765
    1W        W33679  11.712  28.760   7.572 -0.0788  0.0004  0.0497
    1W        W33680   5.100  16.977   8.934  0.3516 -0.0033  0.1726
    1W        W33681  23.273  26.444   1.860  0.2010  0.1965 -0.0187
    1W        W33682  24.656  27.703   1.860 -0.2008 -0.1424  0.1829
    1W        W33683   9.804  27.580   6.521 -0.1899 -0.0522  0.1058
    1W        W33684  20.696  19.999   1.540  0.3362 -0.2807  0.2757
    1W        W33685  20.298   3.603   1.936 -0.1696  0.0061 -0.0133
    1W        W33686   4.448   1.575   7.385 -0.0699  0.0260 -0.1837
    1W        W33687  19.556  15.822   8.480  0.1939 -0.1396 -0.2555
    1W        W33688  18.693   2.893   9.446 -0.0693  0.1848  0.1494
    1W        W33689   9.717   0.048   3.366  0.0666 -0.1339  0.2009
    1W        W33690  10.090  10.128   8.510  0.0719 -0.2715  0.1852
    1W        W33691   9.103  13.473   6.759 -0.0033 -0.1855 -0.4065
    1W        W33692  25.928  21.216   0.791 -0.1097  0.0804  0.1126
    1W        W33693   2.247  15.376   2.428  0.4294 -0.0388 -0.1922
    1W        W33694  23.571  16.827   0.864  0.1280  0.2410  0.1260
    1W        W33695  22.487  28.953   1.972  0.4178  0.2046 -0.1989
    1W        W33696   7.059  20.522   0.203 -0.0248 -0.2152 -0.0873
    1W        W33697  29.063   1.097   7.438  0.2529  0.0583 -0.2076
    1W        W33698   7.549   0.467   7.556 -0.3272 -0.1123  0.2691
    1W        W33699   5.551  29.217   1.298  0.2617 -0.1995  0.2002
    1W        W33700   3.887   6.377   7.434 -0.0748  0.0214 -0.0882
    1W        W33701  20.688  10.666   8.037  0.1639  0.1439 -0.3363
    1W        W33702  21.237  14.453   1.354  0.0768 -0.0286 -0.1727
    1W        W33703  23.911  16.326   8.514 -0.0742  0.6234 -0.1675
    1W        W33704  25.388   0.735   1.064  0.2188 -0.3694  0.3219
    1W        W33705  23.980  18.697   7.021 -0.3553  0.1137  0.0960
    1W        W33706  20.661  14.306   2.374 -0.1093 -0.0579  0.2504
    1W        W33707   1.548  25.820   0.536 -0.1250  0.0212  0.0866
    1W        W33708   4.801  26.349   6.864 -0.3130 -0.0750 -0.0088
    1W        W33709  19.788   7.450   8.747  0.1270 -0.1483 -0.0790
    1W        W33710   8.993  17.286   5.780  0.1907 -0.1369  0.0423
    1W        W33711   7.129  19.921   2.643  0.1335 -0.3289  0.0507
    1W        W33712   2.907  13.830   9.357  0.2299  0.0241 -0.0171
    1W        W33713  26.125   2.792   7.362 -0.1944  0.1965 -0.1383
    1W        W33714   7.471  21.999   0.369  0.6169 -0.0448  0.2072
    1W        W33715  10.576   7.033   2.078 -0.3448 -0.1046 -0.1639
    1W        W33716  21.886  22.171   6.614 -0.0764 -0.0690  0.4282
    1W        W33717  27.594  28.249   1.091 -0.1391  0.1801  0.0125
    1W        W33718   7.790  26.806   6.777 -0.0813  0.3037 -0.3303
    1W        W33719  19.500   1.492   2.962 -0.2076 -0.3473 -0.1368
    1W        W33720   7.083  11.708   8.416  0.0961 -0.1187 -0.0860
    1W        W33721  15.464  19.202   1.393 -0.1521 -0.2366 -0.0727
    1W        W33722  29.021   3.754   0.481 -0.1934 -0.2847  0.1435
    1W        W33723   9.477  20.083   2.054 -0.4715 -0.0989 -0.0099
    1W        W33724   6.683  28.942   1.777 -0.0080  0.0637 -0.1344
    1W        W33725  14.565  22.506   8.084 -0.0832  0.0777 -0.1679
    1W        W33726  20.068   7.403   1.139 -0.2237  0.0265  0.4358
    1W        W33727  11.547  20.024   0.888  0.0308  0.1031  0.0332
    1W        W33728  10.962  18.414   7.598  0.2554 -0.3054  0.3298
    1W        W33729  25.733   4.368   0.065 -0.0633 -0.2923  0.1244
    1W        W33730  14.049  29.197   2.872 -0.1692  0.0912 -0.0431
    1W        W33731  14.524  20.373   8.877 -0.0184 -0.0606  0.0237
    1W        W33732  28.976  18.017   8.039  0.0445 -0.1190 -0.0045
    1W        W33733  22.406   3.531   2.305 -0.0737  0.0658 -0.3184
    1W        W33734  16.678   5.151   8.993 -0.2892  0.0334  0.1158
    1W        W33735  18.896  23.942   8.190  0.1250 -0.1942  0.2572
    1W        W33736  15.907  24.285   0.240 -0.4307 -0.0168 -0.1177
    1W        W33737  18.209  15.990   7.093 -0.2906  0.3331  0.2269
    1W        W33738  14.978  16.355   9.145  0.1022 -0.1774  0.1117
    1W        W33739   6.655  21.395   7.997  0.0204 -0.1552 -0.0239
    1W        W33740  17.572  12.706   7.649 -0.0431 -0.0401  0.2141
    1W        W33741   1.207  16.913   2.109  0.0866 -0.1680 -0.2099
    1W        W33742  26.817  20.699   1.322  0.1548 -0.0030  0.0717
    1W        W33743   1.582   8.941   7.045 -0.1046  0.2051  0.2115
    1W        W33744  26.093  29.337   2.642  0.0957  0.1516 -0.3318
    1W        W33745   2.443   8.407   6.425  0.1471  0.1903  0.0990
    1W        W33746  19.532  11.890   7.725 -0.2375  0.0192  0.1128
    1W        W33747  18.847  18.080   8.184  0.1358 -0.2273  0.1265
    1W        W33748   9.185  26.056   1.304 -0.1890  0.0749 -0.0531
    1W        W33749  10.191  19.004   6.840 -0.1129 -0.2334  0.3557
    1W        W33750   5.088  27.947   8.078  0.0900 -0.2430  0.0759
    1W        W33751  14.221   2.355   1.245  0.1135 -0.0098  0.0411
    1W        W33752  11.713  26.489   8.331 -0.3211  0.1326  0.2075
    1W        W33753  17.775  12.450   8.537  0.2840 -0.0553  0.0128
    1W        W33754  13.109  15.829   7.391 -0.1100  0.1204 -0.2430
    1W        W33755   8.086   1.455   2.230 -0.1173  0.0407  0.2672
    1W        W33756  12.017  21.610   7.933  0.2196 -0.2319 -0.0511
    1W        W33757   7.994  10.630   0.099  0.0732  0.2563 -0.0632
    1W        W33758   9.571  11.408   7.883 -0.0835  0.0859 -0.3166
    1W        W33759   1.632   5.165   0.072  0.1062 -0.1184 -0.1537
    1W        W33760  18.548  20.176   5.835 -0.0440 -0.1862 -0.2671
    1W        W33761   3.176   4.625   2.052 -0.0777  0.1660 -0.0250
    1W        W33762  27.814   6.439   7.101  0.2785  0.2146  0.1350
    1W        W33763   2.993  27.748   0.017 -0.4292  0.0413 -0.0752
    1W        W33764  17.489   6.690   8.923 -0.0396  0.2818 -0.1616
    1W        W33765  19.077  25.187   0.995  0.0176 -0.1897  0.0085
    1W        W33766  12.863   4.266   3.432 -0.0046  0.1562 -0.2485
    1W        W33767  24.465  20.633   2.137 -0.1018 -0.1703  0.0004
    1W        W33768  16.978   4.725   2.638  0.0407 -0.2586 -0.0684
    1W        W33769  18.499  19.274   0.602 -0.1615 -0.1059  0.2003
    1W        W33770  16.172  15.814   6.196 -0.1463  0.1423 -0.0786
    1W        W33771  24.416   1.809   1.316 -0.2304  0.0358 -0.0599
    1W        W33772  19.513   4.115   3.497  0.0691  0.1765 -0.2296
    1W        W33773  20.212  20.007   8.203 -0.0855  0.0468 -0.0120
    1W        W33774  27.745  23.025   2.161  0.0654  0.1205 -0.0356
    1W        W33775   2.507  15.613   0.410 -0.1057  0.0061  0.1246
    1W        W33776  17.072  14.114   7.277 -0.0012 -0.0229  0.0922
    1W        W33777  24.475  24.142   1.311 -0.0681 -0.2386 -0.1505
    1W        W33778  27.641  26.152   7.332 -0.0538  0.0845  0.1850
    1W        W33779  19.394  25.777   6.707  0.2058  0.0786  0.1232
    1W        W33780  28.998   3.118   0.172  0.1810 -0.0163 -0.1192
    1W        W33781  12.581  12.208   2.744  0.0491  0.0967  0.0323
    1W        W33782  28.465  16.857   6.631 -0.2814 -0.1634 -0.3128
    1W        W33783  18.762  10.293   8.264 -0.0595 -0.0886 -0.0350
    1W        W33784   3.370   9.718   0.948  0.3638  0.1649  0.2925
    1W        W33785   9.791   9.789   2.298  0.1181  0.1263 -0.1789
    1W        W33786   1.347  27.906   8.870 -0.0942  0.1078  0.1810
    1W        W33787   1.825  28.529   8.636  0.0688  0.1995  0.0053
    1W        W33788   6.797   0.544   0.942 -0.1314 -0.3794 -0.0669
    1W        W33789  27.934  12.306   7.914 -0.1840  0.2626 -0.0462
    1W        W33790   9.695  20.365   0.105 -0.0864 -0.2404  0.0102
    1W        W33791   5.795  20.672   0.873  0.0230 -0.0878 -0.3717
    1W        W33792   0.906  14.064   8.810  0.0446 -0.1595  0.0600
    1W        W33793   3.931   8.782   7.942  0.1302 -0.0724 -0.2699
    1W        W33794  16.310   2.373   8.647  0.0171  0.0632  0.0956
    1W        W33795  11.367  21.146   5.935  0.0713  0.1570  0.0187
    1W        W33796   0.938  17.207   6.584  0.0690  0.0231 -0.1303
    1W        W33797  22.899  14.027   7.092 -0.0668  0.0127  0.0117
    1W        W33798   8.519  28.805   7.190  0.2488  0.4365 -0.0071
    1W        W33799   2.798   0.151   0.383  0.0677  0.0369  0.2155
    1W        W33800  18.497  28.019   7.698  0.1655 -0.1268 -0.1073
    1W        W33801  10.418  13.925   9.435  0.1289  0.0814 -0.0906
    1W        W33802   9.240   9.374   2.435  0.0717  0.0758  0.1536
    1W        W33803  11.382   6.202   0.736 -0.3267  0.0737  0.1939
    1W        W33804  28.399   0.966   0.508 -0.3119 -0.1386  0.3454
    1W        W33805  19.113  11.408   0.385  0.2145  0.0025 -0.1974
    1W        W33806   8.641   9.210   7.801  0.2393  0.2303  0.1450
    1W        W33807   0.879   9.122   7.763  0.4022  0.2093  0.2278
    1W        W33808  23.244  26.220   1.368 -0.1930 -0.0499  0.1505
    1W        W33809   2.494  11.700   0.375 -0.1714 -0.2522 -0.2238
    1W        W33810  29.236  16.293   7.784  0.1832  0.3951 -0.1123
    1W        W33811  23.890   9.687   7.982  0.1946 -0.3705  0.0044
    1W        W33812  28.714  14.727   9.476  0.0918 -0.1717  0.3365
    1W        W33813  21.013   6.138   9.109  0.4017  0.3079 -0.0693
    1W        W33814  22.819  26.888   7.497  0.2532 -0.0803  0.1251
    1W        W33815   2.538   7.792   7.570  0.0822 -0.2770 -0.0449
    1W        W33816   4.030   0.303   6.905 -0.1049 -0.1180 -0.2208
    1W        W33817  22.220  23.517   1.862 -0.2015 -0.0865 -0.0469
    1W        W33818   2.305  27.172   8.313 -0.0832 -0.3289  0.0425
    1W        W33819  18.587  12.042   8.647  0.2126  0.1486  0.3250
    1W        W33820  13.562  27.476   1.675 -0.0785  0.0469 -0.1474
    1W        W33821   7.466  14.427   0.324 -0.0851  0.3143 -0.2027
    1W        W33822  19.555  24.717   0.521  0.2602 -0.0477  0.1694
    1W        W33823  10.910   3.600   3.013 -0.3999  0.0941  0.2122
    1W        W33824  21.676  14.591   8.721  0.1416 -0.0562 -0.2973
    1W        W33825  23.955  28.568   7.192  0.2736  0.4425 -0.1247
    1W        W33826  29.181  16.391   8.293 -0.0480 -0.1681 -0.3814
    1W        W33827   7.175  23.348   8.228  0.0388 -0.1821  0.0325
    1W        W33828  22.058  28.068   1.869 -0.1117 -0.1404  0.1833
    1W        W33829  27.960   0.806   6.172 -0.0323  0.1240 -0.1678
    1W        W33830  19.836   5.664   8.471 -0.0083  0.2605  0.3630
    1W        W33831  26.521  19.075   8.811  0.0128  0.1827  0.3073
    1W        W33832  12.632   1.626   8.562 -0.1415  0.0230  0.2746
    1W        W33833   9.418  19.573   7.158  0.3985  0.0691 -0.0494
    1W        W33834   0.735   4.364   7.204 -0.1724 -0.3456  0.2380
    1W        W33835   3.155   3.969   8.957 -0.0277  0.1046  0.1194
    1W        W33836  15.058   9.855   2.788 -0.1038 -0.3119  0.0503
    1W        W33837  15.856  19.549   7.006 -0.1923  0.2806 -0.0670
    1W        W33838  12.959   6.987   2.835 -0.1341 -0.0649  0.2962
    1W        W33839  16.646   7.253   1.562  0.0423  0.3143 -0.1694
    1W        W33840   9.724  12.644   8.501 -0.2112  0.2031 -0.0743
    1W        W33841  23.419  27.479   8.086  0.1104  0.1203 -0.0752
    1W        W33842   8.559   3.895   0.980  0.4192 -0.1392  0.2170
    1W        W33843   4.651   1.106   7.526 -0.0930  0.2169 -0.3393
    1W        W33844  17.240  16.050   7.971  0.1880  0.2397 -0.0601
    1W        W33845  22.575  15.076   1.545 -0.1918 -0.0754 -0.0283
    1W        W33846   5.704  16.332   8.932  0.0053  0.0703 -0.1754
    1W        W33847   9.243  18.889   7.465 -0.0505  0.2569  0.0767
    1W        W33848  10.854   3.393   0.219 -0.5279 -0.0239  0.2803
    1W        W33849   8.695  19.568   9.008 -0.2625 -0.3178 -0.0929
    1W        W33850  16.649  18.807   1.079  0.2295  0.2182 -0.2210
    1W        W33851  27.991   3.431   2.228  0.1348  0.1877  0.0362
    1W        W33852  25.442  27.387   1.642  0.0046  0.0178  0.0106
    1W        W33853   8.994   9.227   0.943 -0.2548 -0.0814 -0.0921
    1W        W33854   2.569  17.335   2.629  0.2478 -0.2010 -0.0029
    1W        W33855  27.464   9.774   6.562  0.2408  0.0998  0.1880
    1W        W33856   4.867  12.430   8.130  0.3384  0.0101  0.0021
    1W        W33857  15.260  15.712   6.637 -0.1384  0.0436  0.0585
    1W        W33858   5.504  21.117   0.799 -0.2057 -0.0999 -0.1166
    1W        W33859   1.333   0.815   1.087 -0.1931 -0.1651  0.1074
    1W        W33860  15.587  16.447   1.990 -0.1041  0.0906 -0.1297
    1W        W33861   0.016  13.593   2.546  0.0977  0.0137  0.1464
    1W        W33862  23.468   1.102   0.298  0.2091  0.0309  0.0684
    1W        W33863  27.373  17.702   0.683 -0.0561 -0.1237  0.0009
    1W        W33864  16.242  22.754   1.233 -0.0222 -0.0388  0.0292
    1W        W33865   1.076  16.015   1.479  0.1132  0.1492  0.0449
    1W        W33866  29.678  16.555   9.071  0.1022 -0.0578 -0.0533
    1W        W33867  26.275  20.495   7.184 -0.2112  0.1709  0.0352
    1W        W33868   8.286   5.134   8.690 -0.3571 -0.0715  0.1670
    1W        W33869   1.794   4.415   8.590 -0.0183  0.1262 -0.2865
    1W        W33870   6.259  13.281   8.887 -0.0125  0.3808 -0.1871
    1W        W33871  21.561   9.949   3.111 -0.0050 -0.0149 -0.2345
    1W        W33872  11.709  13.081   2.813  0.1712 -0.0737 -0.3117
    1W        W33873  22.726  14.690   0.547  0.0423 -0.2136 -0.0831
    1W        W33874  22.443   1.961   3.140 -0.1850  0.2821 -0.0484
    1W        W33875  25.138  17.526   7.678  0.0325 -0.2171  0.1064
    1W        W33876  17.324   2.046   0.077  0.0088 -0.1377  0.1096
    1W        W33877  21.081   7.429   0.318  0.0608 -0.2784 -0.2251
    1W        W33878  11.797  22.151   1.545  0.0519  0.0835 -0.1101
    1W        W33879   6.269   5.897   0.981 -0.3816 -0.1756 -0.0031
    1W        W33880  23.025  23.435   1.847 -0.0996  0.1107 -0.1103
    1W        W33881   7.131   7.824   1.974  0.0609 -0.0442  0.2083
    1W        W33882  13.687   8.597   2.514 -0.2563  0.0187 -0.1828
    1W        W33883  21.344   9.388   2.320  0.3106  0.1535 -0.0830
    1W        W33884  15.988  12.411   7.924  0.0936 -0.0979 -0.0520
    1W        W33885  28.115  28.561   6.527 -0.0430 -0.1180 -0.3511
    1W        W33886   8.549  21.543   0.632 -0.2497 -0.0750  0.2444
    1W        W33887   2.410  18.456   7.056  0.2977 -0.0801  0.0786
    1W        W33888   6.136  29.509   0.518 -0.1045 -0.2629 -0.0263
    1W        W33889  10.246  22.123   8.024  0.0989 -0.0691 -0.0103
    1W        W33890  19.658  12.295   1.826  0.3109  0.0954  0.0180
    1W        W33891   9.971   4.852   1.514 -0.3543 -0.1259 -0.4045
    1W        W33892  21.193  26.021   7.136 -0.0824  0.1306 -0.0229
    1W        W33893   6.327   6.313   0.104 -0.1632 -0.2375 -0.1216
    1W        W33894  14.362   9.708   1.955 -0.2953  0.0073  0.0044
    1W        W33895  11.461   3.393   8.540  0.1633 -0.0515 -0.0407
    1W        W33896  10.406   3.255   8.187 -0.1371 -0.4461 -0.2202
    1W        W33897  14.208  16.603   0.803  0.1591 -0.0381  0.3120
    1W        W33898  15.260  11.063   2.731  0.0343  0.1114  0.0387
    1W        W33899  21.590  15.150   1.540  0.0057  0.0504 -0.1011
    1W        W33900  29.442  28.919   8.955 -0.2861 -0.0262  0.0601
    1W        W33901  26.604  21.535   6.894  0.0508  0.0256 -0.0407
    1W        W33902   2.405   1.797   6.545  0.3149  0.1705  0.0890
    1W        W33903  28.409  28.291   1.585 -0.1016  0.1291 -0.2252
    1W        W33904  28.917  25.226   7.377 -0.0148  0.1150  0.0392
    1W        W33905  21.645   7.977   2.306  0.1662 -0.1835  0.0333
    1W        W33906  10.888   0.652   6.599 -0.0217 -0.0914  0.0286
    1W        W33907   9.433  19.054   7.898 -0.1256 -0.0009  0.1853
    1W        W33908   6.426   7.723   7.040 -0.0975  0.0098 -0.0602
    1W        W33909  20.654  24.639   8.360 -0.0953  0.0236  0.3498
    1W        W33910   6.786   8.729   8.848  0.1440  0.0805  0.3058
    1W        W33911  24.116  27.328   8.509 -0.1440 -0.1206  0.1403
    1W        W33912  29.667  24.249   8.972 -0.1962 -0.2767 -0.2576
    1W        W33913  14.032  13.412   0.514  0.2048  0.2555  0.3259
    1W        W33914  20.194  25.383   6.893  0.0169 -0.0534  0.1670
    1W        W33915  28.040  14.989   7.791  0.1316 -0.1723 -0.2003
    1W        W33916   4.456  14.802   7.421 -0.0918 -0.0237  0.0109
    1W        W33917  27.217  19.121   2.293  0.3907  0.0379 -0.2277
    1W        W33918   7.007   1.006   7.622 -0.0581 -0.1995  0.1992
    1W        W33919  27.699  16.332   8.758  0.2153  0.2572 -0.1551
    1W        W33920  29.808  28.468   1.594 -0.0353  0.1461  0.2478
    1W        W33921  21.176  17.153   0.987 -0.0563 -0.0742  0.2342
    1W        W33922   9.588   2.604   7.701  0.0958 -0.0525 -0.0739
    1W        W33923  28.288  16.661   2.080  0.1319 -0.1043 -0.1289
    1W        W33924   8.048   3.995   7.638  0.0897 -0.2919  0.0463
    1W        W33925   4.177  28.286   7.406 -0.0403 -0.0446 -0.0139
    1W        W33926   9.393  21.762   6.474 -0.1168 -0.0855 -0.1398
    1W        W33927  22.892   2.891   9.526  0.0672  0.4706 -0.0036
    1W        W33928  23.880  25.969   0.596 -0.1438  0.3524 -0.1523
    1W        W33929  14.362   5.707   3.075 -0.0128  0.0006  0.0433
    1W        W33930  13.024  12.178   8.841 -0.2571  0.2312 -0.1149
    1W        W33931   9.715  27.622   8.772  0.1407  0.0704 -0.1532
    1W        W33932  12.359  23.144   8.294  0.0359  0.0656  0.0387
    1W        W33933   1.684  10.270   6.795 -0.0591 -0.0904 -0.0494
    1W        W33934   9.319  13.430   8.755  0.0221  0.0249  0.1521
    1W        W33935  17.349   1.423   3.540  0.2302  0.2077  0.0652
    1W        W33936  13.731  14.343   1.907  0.0278 -0.3324  0.1356
    1W        W33937  14.359  21.721   7.068  0.3054 -0.0742  0.6149
    1W        W33938  25.491   1.977   7.706  0.1847  0.0145  0.0032
    1W        W33939  15.534   5.118   9.496 -0.1784  0.1623 -0.0243
    1W        W33940  28.989  27.813   5.503  0.5064 -0.1517  0.0744
    1W        W33941   1.135  10.418   2.187  0.0753  0.0046  0.1181
    1W        W33942  19.933  12.368   8.639 -0.0638  0.0011 -0.2306
    1W        W33943  11.761  22.084   9.345  0.1300  0.1189 -0.0447
    1W        W33944   9.573   8.716   0.639 -0.1459  0.1026 -0.1599
    1W        W33945  21.029  23.011   0.693  0.0737  0.1691 -0.1147
    1W        W33946  27.833  23.165   1.581 -0.3779 -0.0011  0.2033
    1W        W33947   0.423   3.543   8.254  0.0796  0.1836 -0.3518
    1W        W33948  21.311  13.511   9.327 -0.3881  0.2166 -0.1463
    1W        W33949  14.785   6.781   0.502  0.0231  0.1217 -0.0652
    1W        W33950  26.746   6.515   9.324  0.0915 -0.0905  0.0894
    1W        W33951   1.551  13.670   8.463 -0.1057  0.2856 -0.0738
    1W        W33952  27.704   6.475   8.177  0.0222  0.2705  0.0421
    1W        W33953  10.574   5.609   3.300 -0.1059  0.3431  0.0737
    1W        W33954  14.603  23.236   0.867 -0.0068  0.0198  0.0862
    1W        W33955   1.884  14.946   7.198 -0.0004 -0.0555  0.0349
    1W        W33956  14.852  20.909   6.940  0.2381  0.2261 -0.0817
    1W        W33957   1.060  26.163   1.223 -0.1041  0.0582 -0.2991
    1W        W33958  21.215   5.571   2.642  0.0386  0.0121 -0.0726
    1W        W33959  24.700  17.371   1.901 -0.1691 -0.2851  0.2857
    1W        W33960  23.666  21.089   1.929 -0.2431 -0.0841 -0.1718
    1W        W33961  12.993  15.205   0.075 -0.0207 -0.0734 -0.0025
    1W        W33962  15.165  12.818   1.819  0.0460  0.1391  0.1832
    1W        W33963   1.938   4.263   6.891 -0.3078 -0.0910  0.2727
    1W        W33964   9.477   4.899   1.727  0.1215  0.3435 -0.0238
    1W        W33965  20.744   3.429   8.807 -0.3322 -0.4012 -0.2186
    1W        W33966  25.746   7.445   1.140 -0.2528  0.2295 -0.1786
    1W        W33967  26.536   7.444   0.610  0.2785 -0.1271 -0.1913
    1W        W33968  27.893  10.757   9.108  0.2182 -0.0806  0.3014
    1W        W33969   0.959   8.425   5.884  0.0512 -0.1389  0.3243
    1W        W33970  14.479  17.420   6.602 -0.4386  0.1489 -0.2263
    1W        W33971  20.133  15.955   1.031  0.0947  0.1175 -0.0671
    1W        W33972  17.207  22.436   6.466 -0.2546 -0.1548  0.2053
    1W        W33973  13.954  24.032   8.694  0.0752  0.0444 -0.2113
    1W        W33974  23.690  13.107   9.197 -0.0883 -0.0875  0.3424
    1W        W33975  18.161   3.090   0.581 -0.1467 -0.0694 -0.1957
    1W        W33976   4.924  23.950   7.127  0.0074 -0.1812 -0.1182
    1W        W33977   4.649   6.501   7.101 -0.1385  0.0627 -0.0151
    1W        W33978  10.012   7.252   3.087 -0.0069  0.3848  0.0355
    1W        W33979  24.127  17.832   1.042 -0.4299 -0.0515 -0.0633
    1W        W33980  25.439  22.606   8.458  0.0294  0.1258  0.1339
    1W        W33981  10.583  19.268   8.252 -0.1565  0.0438  0.1600
    1W        W33982  14.668  29.393   9.076 -0.2462 -0.0810 -0.0158
    1W        W33983   5.133  22.667   5.967 -0.1560  0.0456 -0.1309
    1W        W33984  24.437   7.840   1.199  0.0381 -0.3630  0.0265
    1W        W33985   2.121  13.360   8.156  0.0972 -0.0463 -0.2386
    1W        W33986  15.411   4.584   3.510  0.0246 -0.2213  0.0902
    1W        W33987  17.346   0.781   1.772 -0.0421 -0.1505  0.1966
    1W        W33988  12.490   0.190   2.728  0.0438 -0.1413  0.0368
    1W        W33989  20.312  17.344   1.701 -0.0233 -0.0773 -0.0479
    1W        W33990  16.862  27.241   0.686 -0.2078 -0.0492 -0.0654
    1W        W33991   8.649  14.015   0.899  0.2891  0.1335  0.1254
    1W        W33992   9.862  24.824   9.493  0.1284 -0.0063  0.1461
    1W        W33993  16.372  24.276   9.309  0.2999  0.0397  0.1772
    1W        W33994   2.653   4.605   7.342 -0.1005 -0.0695 -0.2212
    1W        W33995  27.518  26.921   8.579  0.3092 -0.1834  0.2229
    1W        W33996  11.177  20.240   9.216 -0.0238 -0.4684  0.0211
    1W        W33997  23.206  18.745   0.155 -0.0503 -0.2630 -0.1558
    1W        W33998   9.970  19.300   1.072  0.2228  0.2596  0.0678
    1W        W33999  28.321   0.667   7.740  0.1859 -0.0888 -0.0337
    1W        W34000  24.498  27.147   8.930  0.0063  0.0178  0.0523
    1W        W34001   1.776  16.880   8.701  0.3071 -0.0597 -0.3423
    1W        W34002   7.114  26.441   1.880 -0.1021  0.2423  0.0576
    1W        W34003   4.160  25.242   1.983 -0.1387  0.0676 -0.2137
    1W        W34004   5.143  20.068   2.290 -0.0934  0.1462 -0.3338
    1W        W34005   3.165   8.540   7.223  0.0965  0.2438  0.2385
    1W        W34006   9.909  17.972   9.523 -0.4638  0.0441  0.1388
    1W        W34007   8.107  24.448   0.136  0.3338  0.0018 -0.0401
    1W        W34008  18.173  26.008   1.518 -0.0969  0.0770 -0.0510
    1W        W34009  15.731  28.497   8.865  0.2967 -0.0899 -0.0775
    1W        W34010  28.965  27.153   7.783  0.0836  0.0050  0.1484
    1W        W34011  12.121  13.423   8.339 -0.1622 -0.0784  0.2568
    1W        W34012  22.093  20.488   6.862 -0.0292 -0.1056  0.3053
    1W        W34013   4.125  11.921   1.653 -0.4087 -0.0287 -0.0120
    1W        W34014   9.157   9.237   1.935 -0.3871 -0.3108 -0.2702
    1W        W34015   4.392   2.949   8.440  0.1274  0.0438  0.1987
    1W        W34016   7.105   0.317   1.264 -0.0264 -0.2205  0.0643
    1W        W34017   1.255   1.853   7.080 -0.1718 -0.3044  0.1597
    1W        W34018  28.085  29.281   6.440 -0.1497  0.0159  0.1046
    1W        W34019  27.398  29.632   6.755 -0.0576 -0.1246  0.2436
    1W        W34020  23.137   5.894   2.772  0.2414 -0.1361 -0.0968
    1W        W34021  26.705  10.133   2.346 -0.0941  0.3274 -0.2272
    1W        W34022   3.721   7.895   2.593 -0.5288  0.0831  0.0365
    1W        W34023  15.855  20.849   9.496 -0.0969  0.0532 -0.0104
    1W        W34024   0.804   9.936   2.725 -0.1221 -0.1989  0.0507
    1W        W34025  12.865   7.818   1.690  0.0058  0.1131  0.0300
    1W        W34026   3.734   3.978   2.178 -0.0633  0.1197 -0.2471
    1W        W34027   8.478  18.586   9.162 -0.0444 -0.2707  0.1436
    1W        W34028   9.056   7.911   8.054  0.1797 -0.0541 -0.0081
    1W        W34029  14.076   5.816   0.542 -0.1348  0.1373  0.1978
    1W        W34030  12.565  18.369   1.850  0.0118 -0.1564  0.1648
    1W        W34031  12.946  28.130   2.813  0.0921 -0.0250  0.0995
    1W        W34032  10.097  26.877   9.012 -0.2075  0.1791  0.0813
    1W        W34033   6.065  24.906   0.108  0.0416  0.0625 -0.0561
    1W        W34034  16.074  23.774   9.269  0.2750 -0.5562  0.2441
    1W        W34035   9.573  19.017   9.335 -0.1367 -0.2206  0.0784
    1W        W34036   2.801   3.626   8.083 -0.0884  0.0556 -0.0885
    1W        W34037  24.094  14.317   8.859 -0.3393  0.1194 -0.2465
    1W        W34038  23.707   0.670   8.932  0.2126 -0.2400 -0.1408
    1W        W34039   7.038  18.184   7.814  0.0050  0.1973 -0.2606
    1W        W34040   8.985  16.686   0.917  0.0599  0.0137 -0.0663
    1W        W34041  15.327   7.730   3.260  0.3443  0.0109  0.1131
    1W        W34042  17.068   8.750   2.318  0.0962 -0.0486 -0.0599
    1W        W34043  13.556   9.166   2.278  0.2309 -0.5059  0.0406
    1W        W34044  20.744  11.564   9.078 -0.0614  0.1498  0.2100
    1W        W34045   0.469  15.847   2.042  0.3498  0.2838 -0.1149
    1W        W34046   9.944  13.691   0.190 -0.0365 -0.2466 -0.2729
    1W        W34047  20.956   9.552   8.700  0.2377 -0.0369  0.1016
    1W        W34048  26.479  29.765   7.694  0.1392  0.0815 -0.3172
    1W        W34049  17.766  23.879   0.600  0.0052  0.0522  0.0170
    1W        W34050  14.378   5.370   4.315  0.0866  0.1006 -0.2212
    1W        W34051   5.053  28.118   1.220 -0.1112 -0.1444 -0.1659
    1W        W34052  12.420  26.143   8.581  0.2048 -0.2108  0.2583
    1W        W34053   6.137  11.528   6.348  0.1609  0.1515  0.1507
    1W        W34054  22.524  16.734   9.511 -0.0357  0.0342 -0.0405
    1W        W34055  10.779   8.647   1.364  0.2417 -0.1917  0.0493
    1W        W34056  29.437  27.437   8.429  0.1872  0.1491 -0.1041
    1W        W34057  24.990  23.437   8.039 -0.1877 -0.1166  0.0399
    1W        W34058   8.891  26.957   2.349  0.2858 -0.0666 -0.0199
    1W        W34059  27.668   0.848   3.431  0.1721 -0.4564  0.1090
    1W        W34060  16.360   8.199   2.523 -0.0382  0.2108  0.0745
    1W        W34061   1.569  10.929   6.449  0.4690  0.1745  0.3290
    1W        W34062  28.852   0.663   7.676 -0.0312  0.1476  0.1222
    1W        W34063  17.149   1.608   7.962  0.3932 -0.1201  0.1605
    1W        W34064  29.171   2.669   8.022 -0.0764  0.3034 -0.1247
    1W        W34065  17.339  14.691   0.617 -0.0854  0.0298  0.2152
    1W        W34066   7.289   8.938   2.762  0.0738  0.0015  0.1567
    1W        W34067  27.187  14.472   7.803  0.1340 -0.0383  0.3542
    1W        W34068  14.365   6.363   2.569  0.1548  0.0613  0.0535
    1W        W34069  18.796   2.953   8.925 -0.2082  0.0309  0.1393
    1W        W34070   7.379   6.451   1.939 -0.1260  0.3110 -0.1416
    1W        W34071   0.259  28.760   6.955  0.2932 -0.0671 -0.3896
    1W        W34072   2.182  12.108   7.259 -0.0094  0.2849  0.3562
    1W        W34073  25.198  20.876   0.365  0.0155 -0.1034 -0.0408
    1W        W34074   8.698  10.961   7.027  0.0152  0.1448  0.1859
    1W        W34075  27.969  18.562   1.587  0.3788  0.1929  0.1137
    1W        W34076  21.204  24.059   9.127  0.1984  0.4498  0.1495
    1W        W34077  28.761  28.196   7.275  0.0378 -0.0293 -0.2892
    1W        W34078  22.395   1.061   0.064  0.1104  0.3709 -0.2580
    1W        W34079   5.978   0.995   6.659 -0.0676  0.1650 -0.1877
    1W        W34080  26.497  20.856   7.527 -0.0335 -0.0092 -0.3057
    1W        W34081   1.846  22.012   1.232  0.0537 -0.1525 -0.0591
    1W        W34082  13.921  24.641   0.924  0.0505 -0.1912 -0.1569
    1W        W34083  21.207  10.948   9.025 -0.4751  0.1120  0.1194
    1W        W34084  10.757  11.469   8.628 -0.0445 -0.0117 -0.0267
    1W        W34085   1.855   8.734   2.383  0.2216  0.0777  0.4074
    1W        W34086  24.955  10.829   9.076  0.0968 -0.2359  0.1861
    1W        W34087  12.455   1.642   2.541  0.2236  0.1537  0.1880
    1W        W34088  13.985   9.733   1.593  0.0216  0.0384 -0.1809
    1W        W34089  23.125  25.146   6.432  0.0678  0.1221 -0.0505
    1W        W34090  18.064  15.873   6.371 -0.3097  0.0208 -0.0240
    1W        W34091  24.734   4.106   2.121 -0.3026 -0.0554  0.3625
    1W        W34092  22.349  28.170   6.341 -0.1476  0.1642  0.2647
    1W        W34093   9.357  17.104   8.305  0.0188  0.0178 -0.0583
    1W        W34094  22.623  15.787   7.345 -0.0473 -0.1925  0.0832
    1W        W34095  23.944  23.467   0.289  0.0812  0.0479  0.1855
    1W        W34096  22.280   9.896   7.895 -0.1762 -0.1883 -0.1370
    1W        W34097  10.670   9.397   8.675 -0.3435 -0.1640  0.0182
    1W        W34098  24.939  17.265   7.344  0.1122  0.1864  0.2348
    1W        W34099   1.141  28.641   7.494  0.1098 -0.2493 -0.1052
    1W        W34100   5.865  14.623   2.170 -0.0044  0.0359 -0.0414
    1W        W34101  14.662  19.604   5.641  0.1691  0.1005  0.1686
    1W        W34102  14.464   7.079   1.008  0.1311 -0.0161 -0.2048
    1W        W34103   7.263  17.667   0.880 -0.2484 -0.1557 -0.0189
    1W        W34104   2.314   1.809   8.242  0.0173 -0.2988 -0.2954
    1W        W34105  13.294  14.344   1.228  0.0977  0.0550  0.0628
    1W        W34106  28.327  19.473   1.236 -0.2382 -0.1692 -0.0106
    1W        W34107  24.635  24.110   8.590 -0.0833  0.1605  0.2854
    1W        W34108  14.834  28.540   7.507  0.2390 -0.1130  0.1691
    1W        W34109   6.642  15.533   0.374  0.2170 -0.1861 -0.0418
    1W        W34110  23.717   2.867   3.519  0.1159  0.4687  0.0952
    1W        W34111  17.644  18.346   1.275 -0.0882 -0.0046 -0.0206
    1W        W34112   2.788  21.902   1.715 -0.0959 -0.1215 -0.2087
    1W        W34113  23.484  23.573   7.602  0.2624  0.1148  0.0522
    1W        W34114  16.532   2.952   2.563  0.0948  0.2538 -0.2411
    1W        W34115  24.704   5.122   3.470 -0.0563 -0.1611 -0.3325
    1W        W34116   2.575  16.600   9.111 -0.1119  0.3312 -0.0580
    1W        W34117  13.183   5.676   0.288  0.0960  0.1376  0.2458
    1W        W34118  27.516  19.965   6.424  0.0351  0.0872  0.0092
    1W        W34119  24.962   5.513   1.960  0.2788  0.0323  0.0004
    1W        W34120  17.204   4.285   2.262  0.3686 -0.0492 -0.1570
    1W        W34121  19.005   8.056   3.567 -0.1447  0.0005  0.1625
    1W        W34122  26.578  12.135   0.082 -0.2687  0.1411  0.0763
    1W        W34123  17.649  26.037   1.397 -0.0416  0.0517 -0.1745
    1W        W34124  25.322   4.539   1.887 -0.1932 -0.3216  0.0338
    1W        W34125  12.307   8.997   0.938  0.1770 -0.1354 -0.1452
    1W        W34126  23.301   6.785   7.755  0.2207 -0.3853  0.0629
    1W        W34127   7.464  11.153   2.448  0.0435  0.3384  0.2633
    1W        W34128   9.288  24.680   7.861  0.1100  0.0586 -0.2134
    1W        W34129   5.367  26.745   8.164 -0.1554  0.0115 -0.3096
    1W        W34130  15.893  13.466   1.176 -0.0877  0.0578  0.3059
    1W        W34131  11.752   3.476   0.469 -0.0661 -0.0271 -0.2123
    1W        W34132  12.043  23.681   8.499  0.1207  0.0664 -0.1940
    1W        W34133   4.152  15.731   6.643 -0.3715 -0.0476 -0.3002
    1W        W34134   3.787   8.641   3.370  0.4149 -0.0464 -0.2184
    1W        W34135  12.011   3.685   8.024 -0.0691 -0.1602 -0.0216
    1W        W34136  11.032  20.795   2.419 -0.0983  0.0114 -0.0005
    1W        W34137   6.282  20.504   1.863 -0.0570  0.2183  0.1677
    1W        W34138  14.133  18.587   0.873  0.1358 -0.0258 -0.1012
    1W        W34139   0.637  12.439   6.618 -0.0636 -0.1870  0.0241
    1W        W34140  15.607  26.174   7.424 -0.5199  0.0184 -0.1417
    1W        W34141  22.207   8.942   1.745 -0.0252 -0.3242 -0.2217
    1W        W34142  14.467  13.109   1.316  0.0666  0.4574 -0.1977
    1W        W34143  14.218  18.885   6.994  0.2763  0.0202  0.1064
    1W        W34144   0.115   0.896   0.447 -0.1435  0.1658 -0.1794
    1W        W34145  28.939   0.851   6.524 -0.1644  0.2252  0.1544
    1W        W34146  23.390   5.608   0.023  0.1485  0.0219 -0.0781
    1W        W34147   0.947  16.641   8.133  0.4096 -0.2199 -0.1144
    1W        W34148  18.971   4.078   8.809 -0.3754  0.0678  0.0426
    1W        W34149   7.321  12.296   1.739 -0.1339 -0.0453 -0.0300
    1W        W34150   2.717  13.650   8.898 -0.2518 -0.1220 -0.1022
    1W        W34151   5.014  13.705   0.297  0.1721  0.2824 -0.0474
    1W        W34152   3.682   9.968   1.789  0.0398 -0.1114  0.0595
    1W        W34153   2.713  25.905   9.338 -0.2151  0.0733  0.1237
    1W        W34154   0.138   8.338   1.195 -0.0165  0.0069 -0.1043
    1W        W34155   1.377  18.921   7.342 -0.2139 -0.0440 -0.1020
    1W        W34156   1.498   0.787   8.334  0.0364 -0.2687  0.2674
    1W        W34157  29.538  28.566   9.282  0.0850 -0.1748 -0.2098
    1W        W34158   1.657   9.917   1.759  0.0201 -0.0028  0.0842
    1W        W34159  12.125  19.438   1.379 -0.1043 -0.0368  0.0246
    1W        W34160  21.680  11.570   0.819  0.3582 -0.1492  0.1428
    1W        W34161  17.609   5.254   8.557 -0.1384 -0.1277 -0.2254
    1W        W34162  16.517   5.882   1.327 -0.0285  0.1445 -0.1917
    1W        W34163  22.031  17.339   0.253  0.0335  0.0264 -0.1225
    1W        W34164  29.781   4.032   2.644 -0.0857 -0.1558 -0.0876
    1W        W34165   3.641  27.488   1.002 -0.3543  0.0269 -0.2493
    1W        W34166  25.714  12.577   2.117 -0.2222 -0.1228 -0.1566
    1W        W34167  10.251  27.741   7.302 -0.2981 -0.0453  0.1326
    1W        W34168  11.148   0.370   3.301  0.0754  0.1175 -0.0036
    1W        W34169  11.632   3.141   3.542  0.1213 -0.0144  0.1132
    1W        W34170   7.857  10.110   1.545 -0.4461  0.0199  0.2294
    1W        W34171  17.774  18.727   1.642 -0.1503 -0.3164 -0.0545
    1W        W34172   5.125  28.922   7.242 -0.2089  0.1219 -0.0347
    1W        W34173   7.319   2.667   6.734  0.1786  0.4120  0.2930
    1W        W34174  15.269  14.521   1.897  0.1706  0.2285  0.3571
    1W        W34175  13.091   0.824   3.678 -0.0666 -0.0413 -0.0282
    1W        W34176   9.838   4.249   7.214 -0.1917 -0.0139  0.3103
    1W        W34177  25.429   1.880   1.180 -0.1918  0.0370  0.1144
    1W        W34178   4.105   4.507   2.507 -0.0984  0.0279 -0.5823
    1W        W34179  27.264  18.369   9.516  0.1874 -0.5014 -0.1314
    1W        W34180  26.609   4.523   6.740  0.0102 -0.4396 -0.1828
    1W        W34181  15.014  14.968   0.198 -0.0134 -0.2345  0.1451
    1W        W34182  27.612  23.355   0.089 -0.1036 -0.0676  0.0135
    1W        W34183   6.433   0.058   2.802 -0.3041  0.1416  0.1136
    1W        W34184  12.157  28.342   2.199 -0.0833  0.0697  0.2601
    1W        W34185   3.207  14.455   1.118 -0.0348  0.1460 -0.2838
    1W        W34186  26.886  29.357   2.588  0.0093 -0.1466  0.2263
    1W        W34187   2.099   2.247   6.306 -0.0130  0.0739  0.2731
    1W        W34188  13.916   3.122   0.782 -0.1905 -0.0737  0.0040
    1W        W34189  15.074   3.895   4.457 -0.0332  0.1286 -0.0484
    1W        W34190  26.653  13.870   0.974 -0.0041 -0.0021 -0.0788
    1W        W34191  25.005   7.162   3.372  0.2011  0.0609 -0.2859
    1W        W34192  24.889  25.890   0.673 -0.0048 -0.0253 -0.0157
    1W        W34193  13.013  15.708   8.644  0.2275 -0.0428  0.0960
    1W        W34194  10.380  23.284   6.248 -0.0381 -0.4010  0.1897
    1W        W34195   6.427  17.036   0.008 -0.1856 -0.1362  0.1027
    1W        W34196  22.734   7.350   1.574  0.0788 -0.0045 -0.2527
    1W        W34197   8.486   5.629   7.317 -0.1531 -0.1950  0.0099
    1W        W34198  27.289  11.545   1.742  0.3667  0.1108 -0.3649
    1W        W34199   4.056   3.239   8.174  0.0007 -0.4155  0.0658
    1W        W34200  11.148  20.375   6.930 -0.0783  0.2274  0.2593
    1W        W34201  17.599  20.236   8.984  0.3380  0.0554 -0.0825
    1W        W34202  24.247  11.020   8.892  0.0390 -0.1236  0.0691
    1W        W34203  19.882  11.110   2.384  0.2062 -0.1001 -0.3060
    1W        W34204  14.931  14.478   1.566 -0.0203 -0.0595 -0.2814
    1W        W34205  19.367  13.106   7.675  0.0595  0.1455  0.1721
    1W        W34206  14.607   9.233   0.618  0.3569  0.0239 -0.1102
    1W        W34207  14.509  18.678   5.643 -0.0868  0.1572 -0.0629
    1W        W34208  18.858  24.429   7.743  0.0412 -0.0480  0.3413
    1W        W34209  20.261   4.852   3.745  0.2549  0.3215  0.0776
    1W        W34210  23.519   9.040   1.845 -0.1558  0.1686  0.0350
    1W        W34211  14.356  19.020   1.123  0.1898  0.0529 -0.0849
    1W        W34212  19.836   8.165   9.014 -0.1817 -0.3147  0.1542
    1W        W34213   8.778   5.484   7.801 -0.0879  0.3102  0.4623
    1W        W34214   2.783  23.314   8.953  0.3211  0.0401 -0.3618
    1W        W34215   4.429  18.508   1.790 -0.2267  0.1431 -0.0294
    1W        W34216  14.351  23.342   7.645  0.1084 -0.1209 -0.1351
    1W        W34217  22.256  20.100   1.922 -0.0319 -0.1653 -0.2834
    1W        W34218  26.019   0.456   8.810  0.4343 -0.0040  0.0412
    1W        W34219  12.922  17.413   6.499 -0.0166  0.1839 -0.1402
    1W        W34220  10.932  23.273   0.852 -0.0944  0.2853 -0.1845
    1W        W34221  19.350  11.535   9.138 -0.2657 -0.1620  0.1474
    1W        W34222  10.034   2.452   7.948  0.2354  0.2968 -0.0035
    1W        W34223  24.150   3.118   9.515  0.1047  0.3911  0.1768
    1W        W34224  26.540   6.005   1.889  0.2409  0.5300 -0.2577
    1W        W34225  23.148  29.359   1.927  0.1510 -0.2551  0.0507
    1W        W34226  19.254  23.415   9.113 -0.3361 -0.4457  0.2805
    1W        W34227  21.677   1.704   9.313  0.1866  0.0013 -0.0110
    1W        W34228  11.136  16.712   0.680  0.2096  0.1495  0.1174
    1W        W34229  12.758  17.467   8.045  0.5010  0.1786 -0.0722
    1W        W34230   2.575  28.502   9.225  0.0935 -0.2247 -0.0787
    1W        W34231   1.148   0.087   6.507 -0.0542  0.0872  0.0415
    1W        W34232  18.218   1.356   1.862 -0.1470 -0.0346  0.1272
    1W        W34233   2.977  21.331   7.891  0.0907  0.2868 -0.1363
    1W        W34234  11.977   7.169   9.447  0.0045  0.1235  0.0124
    1W        W34235   0.345   6.441   7.364  0.0546  0.0091  0.1483
    1W        W34236   4.192   1.393   2.321  0.2623  0.0903  0.1503
    1W        W34237  28.899   4.618   6.824  0.0084  0.1836  0.2284
    1W        W34238   4.782  16.152   2.414  0.1449  0.0764 -0.0032
    1W        W34239  12.915   5.914   0.735  0.0017 -0.0865 -0.0614
    1W        W34240  25.226  10.945   1.494  0.3007 -0.1588 -0.1365
    1W        W34241  10.270  14.383   1.819 -0.2547  0.3659 -0.1560
    1W        W34242  17.812   5.490   1.353  0.2061  0.2676  0.0227
    1W        W34243  12.001  18.623   2.823  0.1443  0.0507  0.0189
    1W        W34244   4.613   2.582   0.438 -0.2253 -0.0115 -0.1570
    1W        W34245  21.938  26.378   8.730  0.1941 -0.0353 -0.0613
    1W        W34246  17.863   3.157   2.146 -0.1846  0.0759 -0.1439
    1W        W34247   5.989   9.394   2.609 -0.2814 -0.2212 -0.1870
    1W        W34248   7.285   1.785   8.102 -0.0837  0.0202  0.1430
    1W        W34249   2.051  19.288   7.590  0.1600  0.1066 -0.1136
    1W        W34250  21.413   8.208   9.237  0.1503 -0.2289 -0.0270
    1W        W34251   7.117  21.173   7.935 -0.1427  0.0625  0.2176
    1W        W34252   5.311  12.111   1.533 -0.1892  0.3286  0.0779
    1W        W34253  20.438  19.918   0.897  0.0217 -0.3030  0.1806
    1W        W34254   9.836  25.276   6.273  0.1360 -0.2185  0.2201
    1W        W34255   4.376   9.201   6.830 -0.0425  0.0585 -0.2372
    1W        W34256  14.706  18.810   7.031 -0.1073  0.1845 -0.0558
    1W        W34257   8.293  17.965   0.880 -0.2404 -0.0411 -0.2057
    1W        W34258  15.367  21.704   7.305 -0.1120  0.0421  0.3137
    1W        W34259  28.194  18.873   6.323 -0.1827  0.1952 -0.0958
    1W        W34260   0.528  29.224   6.935  0.1443 -0.3954 -0.2249
    1W        W34261  21.440  15.928   9.415 -0.1995 -0.1972  0.0092
    1W        W34262  20.770  22.162   8.737 -0.2488  0.0953 -0.2049
    1W        W34263  13.682   3.085   3.810 -0.1191  0.0469  0.1872
    1W        W34264  17.934  12.019   0.867 -0.1905 -0.1161 -0.3750
    1W        W34265  27.554  28.911   2.051  0.0306 -0.0639 -0.1190
    1W        W34266  21.861  14.859   8.362  0.1479  0.0655 -0.0764
    1W        W34267   6.356  27.635   7.641 -0.3472  0.2054 -0.1597
    1W        W34268  17.817   4.182   3.399 -0.2996  0.0574 -0.1731
    1W        W34269  17.686  23.042   5.880 -0.1248  0.2616 -0.2444
    1W        W34270  13.038  23.728   6.376 -0.0386  0.0362 -0.0965
    1W        W34271  28.356   8.410   8.815  0.1093  0.0765 -0.0402
    1W        W34272  18.207  13.751   1.975  0.1670  0.1606  0.2153
    1W        W34273  22.869  21.612   7.196 -0.4638  0.0591  0.1647
    1W        W34274  23.478  24.720   1.747 -0.0875 -0.2568  0.0372
    1W        W34275  14.142  26.694   1.702 -0.0144 -0.2102  0.0732
    1W        W34276  11.627   5.928   1.198  0.2454 -0.0488  0.1864
    1W        W34277  15.524  29.601   0.122  0.0167 -0.1492 -0.0399
    1W        W34278  11.703   8.656   9.409 -0.2314 -0.2499  0.1006
    1W        W34279   0.328   2.447   0.439  0.0495 -0.0399  0.0957
    1W        W34280  17.886  10.797   8.508  0.1576  0.3578 -0.0499
    1W        W34281  24.258  21.755   2.575 -0.1046 -0.1099 -0.1420
    1W        W34282   7.805  22.272   1.927  0.0422  0.0698 -0.1978
    1W        W34283  21.705   0.393   3.171  0.0003  0.1277 -0.0311
    1W        W34284  27.046   1.648   7.026  0.1128  0.2919  0.3070
    1W        W34285  19.985  27.566   8.499 -0.3371  0.0832 -0.1595
    1W        W34286  16.613  17.377   7.177 -0.0485  0.0301  0.1646
    1W        W34287  25.520  22.583   2.572  0.1872  0.1027  0.0726
    1W        W34288   2.265  23.283   9.010  0.0103  0.4724 -0.1444
    1W        W34289  20.197  18.382   7.665 -0.0401  0.2545 -0.2556
    1W        W34290   0.886  15.078   7.794  0.0590  0.1815  0.1988
    1W        W34291  29.563  16.538   0.021 -0.0526  0.0451  0.2190
    1W        W34292  20.711  19.112   0.139 -0.1850  0.0611 -0.2233
    1W        W34293  11.635  28.450   0.703  0.1544  0.2341  0.3130
    1W        W34294   1.193  18.139   6.272 -0.0627  0.4006  0.0416
    1W        W34295  28.627   6.904   2.296  0.1442  0.0548  0.1208
    1W        W34296   7.944  26.470   9.297 -0.1445 -0.0149 -0.0746
    1W        W34297  21.259   8.588   1.786 -0.1040  0.1550  0.0483
    1W        W34298   2.379  19.730   2.879  0.0745 -0.0187 -0.3069
    1W        W34299   8.080   4.014   2.100 -0.0813 -0.0487 -0.3893
    1W        W34300  21.107  23.700   9.503 -0.1478 -0.2067 -0.1562
    1W        W34301  15.610  26.718   0.227 -0.0275 -0.1995  0.3332
    1W        W34302   0.097   8.939   6.150 -0.0381  0.2039  0.0750
    1W        W34303   3.391   1.600   2.231 -0.0300  0.1570 -0.0132
    1W        W34304   7.413  22.635   1.825  0.1470 -0.1507  0.1762
    1W        W34305  19.423   0.079   0.784 -0.0147 -0.1195 -0.3145
    1W        W34306  22.631   1.567   2.880  0.0526  0.1672  0.1916
    1W        W34307  26.080  14.184   2.803 -0.0846  0.0660  0.2420
    1W        W34308   7.733   1.642   9.159  0.0949 -0.0548 -0.1257
    1W        W34309   5.168   8.896   2.917  0.1117  0.2629  0.2689
    1W        W34310   8.291  24.745   5.941  0.1221 -0.1859  0.1436
    1W        W34311  20.707   1.061   8.935 -0.2047 -0.1513 -0.1672
    1W        W34312  25.482   5.811   0.797 -0.0576 -0.1949 -0.2260
    1W        W34313  29.576   8.639   6.215 -0.2906  0.0153  0.1797
    1W        W34314   5.228  21.303   1.244  0.0455 -0.0002 -0.2629
    1W        W34315  26.905  28.354   7.038  0.1114  0.1681 -0.1815
    1W        W34316  18.199  10.559   8.840  0.0948  0.2802 -0.0599
    1W        W34317   2.071  24.073   1.983  0.1586 -0.0833  0.0914
    1W        W34318  13.859  28.384   9.464 -0.0661  0.1552 -0.4033
    1W        W34319  29.807  14.221   2.227  0.1714 -0.0168  0.1639
    1W        W34320  14.987   3.681   2.223  0.2090  0.0253 -0.0051
    1W        W34321  18.392  24.595   0.996  0.3811  0.2001 -0.2769
    1W        W34322   2.177  16.293   6.823  0.1136  0.2353 -0.1077
    1W        W34323   4.091  23.335   8.356  0.0402  0.6251 -0.1025
    1W        W34324  15.919   2.876   3.374  0.0628  0.2993  0.1715
    1W        W34325  16.253  24.412   8.192  0.0196 -0.1142 -0.1446
    1W        W34326  21.551   3.430   8.232 -0.0280  0.0272  0.0317
    1W        W34327  22.910  20.558   0.836  0.0171 -0.2832  0.0320
    1W        W34328  13.092  13.701   8.355  0.1427 -0.0351  0.1750
    1W        W34329   3.226   9.032   9.149 -0.1816  0.2230  0.0804
    1W        W34330  25.059   5.874   7.148  0.1471  0.0385 -0.0037
    1W        W34331  12.334   6.905   8.943  0.0001  0.2963  0.1645
    1W        W34332  15.672   1.075   9.424  0.2949 -0.1459 -0.1245
    1W        W34333   9.046   2.725   7.394  0.0355  0.4584 -0.0693
    1W        W34334  19.900  19.063   7.136 -0.1143  0.1884 -0.0868
    1W        W34335  28.189  13.293   7.327  0.1436 -0.1401 -0.1522
    1W        W34336  10.928   1.116   3.967 -0.0086  0.0000  0.2268
    1W        W34337  21.633  27.703   8.096 -0.1803 -0.3802  0.2366
    1W        W34338  10.821   0.160   9.026 -0.0178 -0.5221 -0.0757
    1W        W34339  25.294  10.214   3.015 -0.1290 -0.1706  0.0694
    1W        W34340  19.444  13.802   0.815  0.2409 -0.2301  0.2737
    1W        W34341  10.259  17.896   1.819  0.1573  0.3070  0.2012
    1W        W34342   2.158  10.217   0.613 -0.1606 -0.0596  0.2024
    1W        W34343  25.439  16.301   1.917 -0.1344  0.0371  0.1004
    1W        W34344   1.931   4.373   7.431  0.0992 -0.0685  0.0691
    1W        W34345   3.475  11.639   6.232  0.0078 -0.1180 -0.0161
    1W        W34346  21.509  27.665   2.288 -0.0809  0.1820  0.0378
    1W        W34347   6.259   8.263   3.212 -0.1631  0.1362 -0.0227
    1W        W34348  18.819   2.606   3.041  0.3524  0.0539 -0.1244
    1W        W34349   4.752  29.844   2.386 -0.1906 -0.1830 -0.0953
    1W        W34350  29.009  14.654   2.197 -0.2381 -0.0961  0.2603
    1W        W34351  19.834  16.878   7.300  0.1312 -0.1205 -0.0473
    1W        W34352  13.072   2.889   3.418 -0.0606  0.0663 -0.2477
    1W        W34353  10.203   1.692   1.504  0.0693 -0.3919  0.0897
    1W        W34354   9.414  10.260   1.231 -0.0125  0.2053 -0.0184
    1W        W34355  15.359  22.442   7.982 -0.1051  0.0595  0.0958
    1W        W34356  22.632   6.859   0.734 -0.2390  0.2882  0.3536
    1W        W34357   5.863  19.172   9.367  0.0642  0.2764 -0.2926
    1W        W34358   8.715  20.936   0.036 -0.0188 -0.5035  0.4478
    1W        W34359  24.515   8.411   8.904  0.3351  0.1285 -0.0633
    1W        W34360   4.104   4.352   0.960 -0.0489  0.0438 -0.1070
    1W        W34361  18.859  18.061   8.731 -0.0349 -0.0686 -0.2754
    1W        W34362   1.427  13.222   2.189  0.0758 -0.3150  0.0522
    1W        W34363  14.897   4.005   7.728 -0.2166 -0.1362  0.2192
    1W        W34364  28.821   8.762   7.139 -0.1075  0.1038  0.2881
    1W        W34365  21.739  29.403   0.797  0.1897  0.1099  0.1864
    1W        W34366   0.730  10.150   6.846  0.1212  0.2636 -0.2012
    1W        W34367  18.362  17.999   7.420  0.1173 -0.0366 -0.0102
    1W        W34368   2.644  24.976   0.692 -0.0792 -0.0314 -0.0762
    1W        W34369   8.877  21.996   7.086  0.0058  0.0174 -0.1845
    1W        W34370  28.835   1.207   0.028  0.0283 -0.3219  0.3339
    1W        W34371   3.860  13.854   1.509  0.0900 -0.2948 -0.1230
    1W        W34372  26.128   9.038   1.097 -0.1208  0.0072  0.1881
    1W        W34373  22.108   3.064   7.579  0.3487 -0.0766  0.0157
    1W        W34374   5.816  18.933   0.568  0.0622  0.0542 -0.0491
    1W        W34375   0.489  10.256   9.255 -0.0687 -0.1134  0.1888
    1W        W34376  26.094  23.896   9.469  0.2644 -0.1113  0.4732
    1W        W34377  16.692   1.915   2.859 -0.2685  0.0655  0.0902
    1W        W34378  17.509  17.590   7.610 -0.0112 -0.0860 -0.0766
    1W        W34379   6.116   4.020   2.955 -0.4123  0.1253 -0.3708
    1W        W34380   1.807  19.848   9.180  0.3749  0.1786 -0.5505
    1W        W34381   4.567   4.536   2.199  0.0198 -0.1733  0.0005
    1W        W34382  27.182  29.573   1.506 -0.0951 -0.0391  0.0697
    1W        W34383  13.408  12.474   0.240  0.1604  0.1392 -0.1228
    1W        W34384   4.271  23.751   7.844 -0.5370 -0.0862 -0.0421
    1W        W34385  17.067  24.306   8.469  0.0300 -0.1233 -0.0285
    1W        W34386   7.043  19.680   0.480  0.1066 -0.0280 -0.2352
    1W        W34387  11.590  13.294   1.527 -0.1880 -0.1143  0.2815
    1W        W34388   8.560  17.438   7.016 -0.1824 -0.1429 -0.0302
    1W        W34389  27.862  21.926   0.036  0.4336 -0.3192 -0.0933
    1W        W34390  23.251  26.929   8.323  0.1447 -0.0955  0.1055
    1W        W34391  24.405   0.859   0.312  0.1899 -0.3389  0.1069
    1W        W34392  26.341  18.543   7.001 -0.0180  0.2018  0.3245
    1W        W34393  10.854   2.431   9.466 -0.1432  0.0058 -0.0472
    1W        W34394  10.682  17.145   1.888 -0.0873 -0.0673  0.0880
    1W        W34395  12.694  16.487   6.728  0.1007  0.2052  0.1058
    1W        W34396  15.694   1.405   2.612  0.0316 -0.2605  0.0769
    1W        W34397  19.223   1.405   8.993  0.3490  0.0677 -0.1539
    1W        W34398   0.882  15.310   0.739 -0.3963  0.1508  0.4062
    1W        W34399  12.744   4.259   0.699 -0.0903  0.0131  0.0303
    1W        W34400  25.385  17.156   0.049  0.0301  0.1660  0.1832
    1W        W34401   2.690   6.082   0.326 -0.4472 -0.0102  0.1743
    1W        W34402  19.849   1.164   8.368 -0.2356  0.0632 -0.0499
    1W        W34403  28.806  25.209   8.904  0.2316 -0.2223  0.1156
    1W        W34404   4.639  27.002   6.086 -0.3748  0.1499  0.0946
    1W        W34405   0.224  19.703   9.263 -0.0022  0.1500 -0.2053
    1W        W34406  16.488  13.942   1.932 -0.0778 -0.2313  0.1855
    1W        W34407  12.060  12.141   8.773 -0.1763 -0.0475  0.0919
    1W        W34408   8.234   7.360   2.442  0.1845  0.0757 -0.2717
    1W        W34409   7.555   3.164   8.127  0.2012 -0.1254  0.2422
    1W        W34410   0.615   2.594   7.664  0.3774  0.2292 -0.0046
    1W        W34411  14.426  11.666   8.977  0.0663  0.1261  0.2148
    1W        W34412   1.622   8.417   0.143 -0.2406 -0.2358 -0.2447
    1W        W34413   3.884  16.551   0.233  0.0164 -0.3178 -0.1613
    1W        W34414  29.480  24.587   9.340  0.1066  0.0899  0.0509
    1W        W34415  12.437  19.669   0.871 -0.1791  0.0490  0.1356
    1W        W34416  13.819   2.964   2.643 -0.2294 -0.1738 -0.1131
    1W        W34417   2.421  23.120   2.154 -0.0323 -0.2377  0.4927
    1W        W34418  26.150  26.828   8.848 -0.0379  0.0212 -0.0831
    1W        W34419  18.061   0.539   1.267  0.3584  0.1982 -0.0188
    1W        W34420  29.457  11.860   8.079 -0.0687 -0.1075  0.2113
    1W        W34421  21.469  17.582   9.356  0.0621 -0.0471  0.1536
    1W        W34422  10.137  11.369   3.315 -0.3235 -0.0857  0.0215
    1W        W34423   6.488  25.531   6.713  0.2652 -0.0143  0.0105
    1W        W34424  22.691   4.821   0.298  0.3179 -0.2087 -0.1647
    1W        W34425  14.028  20.623   8.598 -0.0143  0.2253 -0.1027
    1W        W34426   5.844  28.254   8.414 -0.1741 -0.2745  0.0977
    1W        W34427   1.083  29.205   8.196 -0.0472 -0.0149 -0.0219
    1W        W34428   4.185   8.261   3.642  0.0313 -0.0002 -0.0176
    1W        W34429  11.272  27.406   2.431 -0.1204  0.2778  0.0181
    1W        W34430  13.224  26.708   1.048  0.0390 -0.2139  0.0369
    1W        W34431   0.804   2.666   0.284 -0.3999  0.0205  0.0500
    1W        W34432  16.977  12.456   7.030  0.0336  0.1477  0.1408
    1W        W34433  17.129   4.115   1.634 -0.3658 -0.2966 -0.0416
    1W        W34434   0.251   6.503   0.469 -0.3149 -0.3599 -0.1572
    1W        W34435  29.223  14.624   6.991  0.0821 -0.0819  0.0417
    1W        W34436  26.734   1.024   7.482  0.1023  0.1761 -0.0907
    1W        W34437  13.879  13.337   8.428 -0.1883  0.1858 -0.0289
    1W        W34438   6.938  27.443   6.645  0.2808  0.1985 -0.1148
    1W        W34439  20.988  11.160   7.884  0.0029  0.3681  0.1630
    1W        W34440   9.490   8.568   7.673 -0.0535  0.1687 -0.3472
    1W        W34441  16.757  23.357   7.179  0.3039 -0.0508  0.1228
    1W        W34442  21.234   6.420   0.520 -0.3761 -0.3829 -0.0642
    1W        W34443   7.445  13.168   9.481  0.1410  0.2926  0.1764
    1W        W34444   7.624  11.262   9.159  0.0121 -0.3978 -0.1229
    1W        W34445  24.419  10.337   7.749 -0.0451 -0.0745  0.0702
    1W        W34446  10.789   0.665   3.556 -0.0281 -0.0063 -0.0590
    1W        W34447  11.009   8.837   6.827 -0.0908  0.0739  0.1599
    1W        W34448  27.477   0.419   0.734 -0.0665  0.2190 -0.4047
    1W        W34449  15.720   2.524   8.017  0.1788 -0.0033 -0.0056
    1W        W34450   2.749  18.701   0.173 -0.3300 -0.1164  0.1318
    1W        W34451  25.813  17.425   8.924 -0.1107 -0.2866 -0.0126
    1W        W34452  25.350  29.068   2.026 -0.0644  0.0066  0.2569
    1W        W34453  23.335   2.506   9.423 -0.0038  0.1052 -0.2286
    1W        W34454  13.093  28.488   2.409  0.1048  0.1915 -0.0787
    1W        W34455  23.937  24.590   1.935  0.1673 -0.0352 -0.0059
    1W        W34456   2.920  11.275   6.821 -0.1300 -0.0456  0.1527
    1W        W34457  23.432  15.321   6.663 -0.0906  0.1535 -0.0980
    1W        W34458  11.621  19.139   7.422 -0.0801  0.1584 -0.1462
    1W        W34459   7.290  28.032   7.969  0.1185  0.0601  0.1464
    1W        W34460  15.070   6.537   2.209  0.1011  0.2546  0.0473
    1W        W34461   2.835  13.420   7.797 -0.0097 -0.3429 -0.2019
    1W        W34462  14.510   5.681   7.939 -0.0010 -0.1598 -0.0403
    1W        W34463  15.953  15.106   2.803 -0.2752  0.0744 -0.1151
    1W        W34464  20.550  17.763   6.378  0.1333 -0.0124 -0.0692
    1W        W34465  20.015   2.469   8.256 -0.0125 -0.0088 -0.0068
    1W        W34466  23.690  22.558   0.563 -0.1708 -0.1104 -0.1579
    1W        W34467   7.302  26.081   6.552  0.1087 -0.1594  0.1422
    1W        W34468   2.261  13.266   1.408 -0.3988  0.0289  0.1451
    1W        W34469  19.703  21.098   7.686  0.0039  0.0256  0.1875
    1W        W34470   1.869   2.102   8.912 -0.1057 -0.0133 -0.3181
    1W        W34471   3.428  26.986   1.588 -0.1921 -0.2329  0.0655
    1W        W34472   5.581  16.687   9.268  0.1288 -0.0338  0.1064
    1W        W34473  21.933   6.564   2.977  0.1667 -0.2713 -0.2415
    1W        W34474   2.886  23.041   8.339  0.0074 -0.2188  0.1099
    1W        W34475   4.994  25.581   5.987  0.2673 -0.1504 -0.2127
    1W        W34476  26.537   4.423   2.489  0.1360  0.0540 -0.2177
    1W        W34477   0.078  24.824   7.486  0.2663  0.0835  0.2566
    1W        W34478  17.368  29.141   8.327 -0.2486  0.0120  0.0647
    1W        W34479  15.061  20.621   8.883 -0.1630  0.2877 -0.0482
    1W        W34480  13.496  29.764   0.415  0.1869  0.2413  0.1037
    1W        W34481  12.958  16.744   9.057  0.4069 -0.0683 -0.4260
    1W        W34482   6.930  22.349   0.731 -0.3688  0.4413 -0.0775
    1W        W34483   9.035  29.772   7.860  0.0257 -0.3130 -0.2460
    1W        W34484  19.696   2.534   0.601 -0.3724 -0.1044 -0.1085
    1W        W34485  19.142  15.262   0.259  0.2525 -0.2937  0.5552
    1W        W34486  26.905   8.136   2.462 -0.2168  0.1968  0.2978
    1W        W34487  28.123   0.494   9.125  0.1231  0.1819  0.3036
    1W        W34488   0.363  17.919   8.064  0.0022 -0.0266  0.5073
    1W        W34489  21.996  28.381   1.030 -0.1364 -0.2630  0.3422
    1W        W34490  21.007  20.519   8.568 -0.0461  0.0751 -0.3911
    1W        W34491  13.593   1.294   3.586 -0.0953  0.0647 -0.2429
    1W        W34492   9.456   3.049   0.305 -0.3609  0.0497 -0.0886
    1W        W34493  17.776   7.001   2.615 -0.1498  0.5526  0.0652
    1W        W34494   5.924  16.741   3.236 -0.0654  0.3386 -0.1398
    1W        W34495   4.756   1.218   1.237  0.1918 -0.3978  0.1879
    1W        W34496   1.622  13.188   0.719  0.0893 -0.2256 -0.3371
    1W        W34497  10.184  11.159   0.859  0.2636 -0.2954 -0.2755
    1W        W34498  11.745  18.790   9.513  0.0612 -0.1816 -0.0414
    1W        W34499  18.892  28.077   0.272 -0.1778  0.3587  0.3322
    1W        W34500  26.364   3.109   2.444  0.0610 -0.2172 -0.1200
    1W        W34501  27.384   2.855   8.290 -0.1311 -0.3643  0.1818
    1W        W34502  14.177  12.243   0.663  0.0099 -0.1068 -0.0726
    1W        W34503  15.662  19.115   9.129 -0.0062  0.2412  0.0480
    1W        W34504  20.555  22.101   5.821 -0.3066 -0.2631  0.0022
    1W        W34505  25.260   9.223   0.266  0.0416 -0.2842 -0.0490
    1W        W34506   9.473   9.221   6.298 -0.1778 -0.2385 -0.3605
    1W        W34507  10.821   4.579   0.279 -0.1581  0.3467  0.0994
    1W        W34508  20.483  22.339   6.922 -0.1531  0.0517 -0.2172
    1W        W34509  18.583  11.606   1.495 -0.1187 -0.2459 -0.1139
    1W        W34510  21.696  13.071   9.160 -0.2301 -0.0084  0.0753
    1W        W34511  12.098  13.616   6.770 -0.1972 -0.0973 -0.0224
    1W        W34512  20.454   6.909   0.882  0.4157 -0.0449  0.2150
    1W        W34513  16.737   9.911   0.757 -0.1038  0.0542  0.1930
    1W        W34514   8.223  26.810   2.600  0.0651 -0.1557 -0.1806
    1W        W34515   7.777  11.083   8.392  0.2717  0.0512  0.2597
    1W        W34516   2.339   9.852   0.966  0.0633  0.0395 -0.1846
    1W        W34517  28.007  25.467   1.038  0.1415  0.2635  0.0834
    1W        W34518  13.269  25.920   1.859  0.0350 -0.1420 -0.0176
    1W        W34519   2.148   9.058   0.383  0.0281  0.0357 -0.4324
    1W        W34520  28.050   1.871   1.834 -0.1583 -0.1108  0.2538
    1W        W34521  17.563   6.482   2.142 -0.0132  0.0334  0.1427
    1W        W34522   0.093  19.114   6.995  0.0696  0.2185  0.2642
    1W        W34523  13.115   4.813   0.267  0.0822  0.1458  0.3918
    1W        W34524   7.358   1.359   7.263  0.1546 -0.2757 -0.1328
    1W        W34525  27.214  24.825   6.989 -0.0111  0.1223 -0.3058
    1W        W34526  12.581  12.261   0.778  0.1295  0.2734 -0.0234
    1W        W34527  18.585  11.821   7.472 -0.1470 -0.2969 -0.1527
    1W        W34528  27.583  12.769   0.548 -0.0068  0.0013  0.2059
    1W        W34529  29.084  17.849   1.658 -0.0030  0.0020  0.3211
    1W        W34530   8.650  27.579   2.732  0.3302  0.2162 -0.0942
    1W        W34531  28.223  10.048   0.066 -0.0109  0.0512 -0.3496
    1W        W34532   1.091  20.232   8.661  0.3744  0.0637 -0.0443
    1W        W34533  25.791   5.389   7.468  0.1560  0.2019 -0.0807
    1W        W34534   8.791   5.257   8.490 -0.0209  0.1333 -0.3138
    1W        W34535  21.879   8.296   0.572 -0.1021 -0.0784 -0.2228
    1W        W34536  10.825   8.767   1.919  0.1747 -0.4164 -0.0879
    1W        W34537  24.243  29.148   8.407  0.2293 -0.1876 -0.0581
    1W        W34538  24.929  14.765   0.816  0.2207  0.1451  0.1298
    1W        W34539  12.106   0.696   2.354  0.0415 -0.2037  0.1341
    1W        W34540   8.946   4.059   3.502 -0.0967  0.1519 -0.1928
    1W        W34541  16.747   3.243   8.688  0.3242 -0.0575  0.0963
    1W        W34542   7.503   2.635   2.375 -0.1190 -0.0024 -0.1049
    1W        W34543  23.957  19.804   7.540  0.1437  0.1075 -0.2992
    1W        W34544  14.394  24.141   5.404  0.2119  0.2324 -0.0552
    1W        W34545  10.692   9.223   8.151 -0.1086  0.1184 -0.2144
    1W        W34546  29.237   4.152   7.221 -0.1149  0.0670 -0.0499
    1W        W34547  29.076  21.608   8.587 -0.0603  0.0317  0.4806
    1W        W34548   6.941  20.452   5.978 -0.0250  0.1632  0.1293
    1W        W34549   9.132  18.435   0.655  0.2739 -0.0728 -0.0976
    1W        W34550   7.968  14.282   1.431  0.0111  0.2026  0.2881
    1W        W34551   4.555   9.288   2.655 -0.0029  0.4890  0.4032
    1W        W34552  11.546  21.159   6.738 -0.3280 -0.0501 -0.0853
    1W        W34553  17.805  24.056   1.089  0.1326  0.1676 -0.0749
    1W        W34554   7.495  27.861   8.438  0.0286 -0.1080 -0.0642
    1W        W34555   2.951  15.452   0.197  0.1465  0.1112 -0.3614
    1W        W34556  12.002  21.748   1.139 -0.0345  0.1919  0.2535
    1W        W34557  26.529  17.535   0.931  0.1217  0.1200 -0.1479
    1W        W34558   2.789  14.703   1.424  0.1134 -0.1162  0.2133
    1W        W34559  10.798  24.021   6.462 -0.2121  0.2399 -0.0894
    1W        W34560  14.167   7.363   0.139  0.1460 -0.1775 -0.0631
    1W        W34561   1.093  23.263   7.331 -0.1022  0.0981  0.1488
    1W        W34562   7.940  15.996   8.973  0.0144 -0.0513 -0.1180
    1W        W34563  26.668  10.251   6.860  0.2180  0.3306  0.0200
    1W        W34564  17.671   4.968   8.973 -0.0633 -0.3274 -0.2112
    1W        W34565  29.841   7.272   6.948 -0.0130  0.0479 -0.1717
    1W        W34566  18.811  29.371   3.184 -0.1849  0.0759 -0.0974
    1W        W34567  25.698  11.767   0.466 -0.0862 -0.0128 -0.1993
    1W        W34568   4.812  25.551   1.578 -0.0432 -0.0187 -0.0654
    1W        W34569  19.248  24.680   0.924  0.0617  0.0911  0.0789
    1W        W34570  13.392   8.857   8.237 -0.0440 -0.2939  0.1444
    1W        W34571  13.491  21.170   6.932 -0.3584 -0.4650 -0.2881
    1W        W34572   6.846   0.883   0.370 -0.2341  0.3871  0.1792
    1W        W34573  24.806   1.579   1.039  0.0216 -0.0708 -0.2877
    1W        W34574  13.433  23.172   0.543  0.1690  0.0538 -0.0525
    1W        W34575  25.355  13.390   1.169 -0.1636  0.1041  0.2493
    1W        W34576  26.084  19.776   1.127  0.1962 -0.0113 -0.1149
    1W        W34577  18.360   5.697   9.278 -0.0286  0.2471 -0.0662
    1W        W34578  28.692   1.217   2.910  0.0495 -0.0834  0.1219
    1W        W34579   6.213  11.902   0.364  0.0241  0.2669  0.0450
    1W        W34580  17.905  28.959   0.757  0.0485  0.2591  0.1308
    1W        W34581  24.502  11.560   0.923 -0.3219 -0.3938 -0.2283
    1W        W34582  11.084   5.489   1.705  0.0100 -0.3030 -0.3012
    1W        W34583  21.388   5.837   7.767  0.0956 -0.1029  0.3101
    1W        W34584  21.551  22.201   8.177 -0.2932  0.4428  0.0447
    1W        W34585  15.857  28.664   1.747  0.2391 -0.1349  0.0309
    1W        W34586  24.381  10.863   7.624  0.0235  0.0419  0.0050
    1W        W34587  11.550  16.068   1.742 -0.1290  0.1695 -0.2520
    1W        W34588  11.820   4.199   3.236 -0.0072  0.0901  0.1129
    1W        W34589  29.567  27.468   5.621  0.1443  0.0978 -0.2649
    1W        W34590  14.505  28.998   2.035  0.0708 -0.0331  0.0150
    1W        W34591  19.534  11.619   2.618 -0.3226 -0.0052 -0.0622
    1W        W34592  28.889  26.066   7.578  0.1484 -0.3413 -0.1671
    1W        W34593   9.630   4.320   0.053 -0.2953 -0.1325  0.0505
    1W        W34594  19.642  29.249   3.530  0.1309 -0.0302 -0.1838
    1W        W34595   9.345  14.772   0.633 -0.0501  0.1632 -0.3013
    1W        W34596  22.673  18.526   0.846  0.1513 -0.1635 -0.1062
    1W        W34597  14.767  24.868   1.255 -0.1056  0.3194 -0.0418
    1W        W34598   9.128  10.544   7.018  0.1811 -0.1894 -0.1824
    1W        W34599  17.589   5.379   0.604 -0.0886  0.0007  0.1864
    1W        W34600   8.213  23.776   5.988 -0.1861 -0.1513 -0.1007
    1W        W34601  23.972  25.822   6.591 -0.0001 -0.4714  0.0462
    1W        W34602   8.123  23.413   1.162 -0.1914  0.1658  0.2947
    1W        W34603  28.498  12.131   0.441  0.0534 -0.2032 -0.0326
    1W        W34604   5.541   9.772   8.318 -0.1842 -0.2391 -0.0323
    1W        W34605  26.894   6.661   7.340 -0.0324 -0.1792 -0.0828
    1W        W34606  18.820   6.001   2.147 -0.1699  0.3886  0.2039
    1W        W34607  25.027  15.474   1.878  0.1166 -0.3667  0.2821
    1W        W34608   2.205   0.882   2.178 -0.1962 -0.0076 -0.0016
    1W        W34609   2.068  16.808   1.928 -0.0857  0.0157  0.0316
    1W        W34610   2.995  25.999   8.901 -0.0711  0.0942 -0.1179
    1W        W34611   2.510  14.410   0.389 -0.1002  0.0982  0.0739
    1W        W34612  10.151  21.263   0.225 -0.0438  0.1320  0.0401
    1W        W34613  23.130  20.003   0.003 -0.0559 -0.2241 -0.1968
    1W        W34614  27.843   2.362   0.122 -0.0091 -0.0789 -0.3842
    1W        W34615  19.878   6.001   2.349  0.1062 -0.1655  0.3075
    1W        W34616   2.468  25.762   8.404  0.2970 -0.2815 -0.1159
    1W        W34617   8.326  14.905   0.412  0.0792  0.0431 -0.0316
    1W        W34618   9.320   5.786   2.202  0.2176 -0.1065  0.1444
    1W        W34619  23.908  13.873   6.899  0.1109  0.0948 -0.0144
    1W        W34620  15.079   4.361   0.442 -0.1878  0.0137  0.0260
    1W        W34621  10.975   3.970   1.792 -0.1270  0.0150 -0.1338
    1W        W34622   3.460   5.259   3.411 -0.1053 -0.4768  0.2346
    1W        W34623  13.860   2.761   3.165  0.0819 -0.1300 -0.0911
    1W        W34624   0.434   9.890   0.257  0.0778 -0.0450  0.0379
    1W        W34625   2.759   8.059   8.382 -0.0235  0.2111  0.3189
    1W        W34626   6.195  26.169   0.469  0.0333 -0.4079  0.0890
    1W        W34627  11.163  21.593   7.661  0.0108  0.0426 -0.0177
    1W        W34628  26.233   7.907   8.123  0.0431  0.0045 -0.3527
    1W        W34629   7.139  28.762   7.349 -0.0930 -0.1892 -0.0070
    1W        W34630  19.289  21.110   7.222 -0.1775  0.0134 -0.1561
    1W        W34631  18.075   0.873   2.728 -0.0971 -0.0301 -0.0494
    1W        W34632  23.386   9.607   1.423  0.2401 -0.1482  0.4138
    1W        W34633   3.399   6.373   0.962 -0.0769 -0.1287  0.2384
    1W        W34634  19.160   7.606   9.340 -0.0761  0.3177  0.1880
    1W        W34635   7.008   6.021   7.071 -0.3799 -0.2866  0.1494
    1W        W34636   3.935  28.376   1.920 -0.0602  0.2157  0.1517
    1W        W34637  18.540  16.976   7.690 -0.1148  0.2721  0.2558
    1W        W34638   6.038  29.560   6.319 -0.1974  0.2640  0.3259
    1W        W34639  23.274  24.913   2.581  0.0638  0.3027  0.0833
    1W        W34640   2.188   8.310   8.981 -0.2170  0.0434 -0.2086
    1W        W34641  28.761   5.702   0.471 -0.1386  0.0629  0.0185
    1W        W34642   5.146  18.622   0.493 -0.1815  0.0537  0.0001
    1W        W34643   4.026  12.268   8.126  0.2999 -0.0821 -0.1817
    1W        W34644   2.925  19.819   7.185 -0.0072 -0.0271  0.0623
    1W        W34645  16.503  22.018   8.371 -0.0982  0.2710 -0.0519
    1W        W34646   1.394  17.923   2.070  0.4789  0.1086 -0.0644
    1W        W34647  27.807  20.915   0.858 -0.0056  0.1569 -0.0394
    1W        W34648   7.150   0.954   1.319 -0.0166  0.1104  0.2320
    1W        W34649  21.281  28.034   8.354  0.0663 -0.2342  0.1679
    1W        W34650  17.101   7.264   1.688 -0.1242  0.3772  0.1405
    1W        W34651   6.667  16.117   2.145  0.0097  0.2743 -0.1002
    1W        W34652   5.197  17.348   8.582  0.0969  0.2949 -0.0164
    1W        W34653  22.788  22.344   0.127  0.1376  0.0059 -0.1988
    1W        W34654  10.812  29.211   9.074 -0.2197 -0.1742  0.1671
    1W        W34655   7.831   4.736   2.463  0.2004 -0.2181 -0.0217
    1W        W34656  25.833  14.611   2.710  0.0840  0.0358  0.2392
    1W        W34657  24.499  27.251   6.429  0.1342  0.2045 -0.1598
    1W        W34658  11.571   7.916   7.534  0.1056  0.0051 -0.0273
    1W        W34659   3.349  28.853   6.875 -0.2078 -0.1811 -0.2283
    1W        W34660   6.247  12.470   7.488 -0.0955  0.2170 -0.1967
    1W        W34661  27.359  20.408   6.290  0.3166 -0.2241  0.1324
    1W        W34662  20.467  21.739   0.509 -0.0185 -0.4632  0.0129
    1W        W34663  19.175  12.505   9.047 -0.0196  0.0044 -0.0556
    1W        W34664  21.305   4.726   0.610  0.1175 -0.0610 -0.2505
    1W        W34665  23.198  28.577   0.064 -0.1421  0.0909  0.1780
    1W        W34666  15.427  16.254   1.502  0.1899  0.0185 -0.2272
    1W        W34667   8.336  28.351   7.541 -0.1784  0.0060 -0.2991
    1W        W34668  11.683   7.969   3.719 -0.1758 -0.0434  0.1575
    1W        W34669  22.568  25.310   8.642 -0.1546 -0.1164 -0.0589
    1W        W34670  13.193  21.739   6.264  0.1600 -0.0288  0.1264
    1W        W34671  13.629   3.538   8.524 -0.2285  0.1185  0.2536
    1W        W34672   9.971  15.298   6.667 -0.0791 -0.2719 -0.0802
    1W        W34673   4.406  20.236   7.033  0.1152 -0.1890  0.0088
    1W        W34674  25.913  29.411   8.992  0.0390 -0.1287  0.0015
    1W        W34675  23.086  18.238   0.909 -0.1935 -0.1923  0.1145
    1W        W34676   5.863   1.949   6.597  0.1679  0.0437  0.0592
    1W        W34677  16.815  20.744   0.605 -0.2006  0.0994 -0.1850
    1W        W34678  10.213  20.783   8.387  0.0895 -0.0392  0.1340
    1W        W34679  27.181  21.135   6.424 -0.0610  0.0605  0.2743
    1W        W34680   0.735   1.194   1.219  0.0382 -0.0915 -0.1413
    1W        W34681  10.715   6.014   8.465 -0.0893  0.2135 -0.2862
    1W        W34682   2.970   7.583   6.656  0.0772  0.2153  0.1730
    1W        W34683  23.055  28.592   6.774 -0.3172 -0.1053  0.0035
    1W        W34684   8.902  14.429   1.882  0.1505 -0.1824 -0.2347
    1W        W34685  26.311  20.402   7.730 -0.2632 -0.0916 -0.0758
    1W        W34686  23.443  14.937   8.022  0.0057 -0.2350  0.1386
    1W        W34687  25.841  11.577   7.480 -0.0779 -0.0576  0.1301
    1W        W34688   1.465   1.482   0.646  0.0840  0.1953 -0.0406
    1W        W34689  18.463  11.957   0.997 -0.1429  0.4612 -0.2334
    1W        W34690  15.443  26.938   2.070  0.0182 -0.1596  0.1871
    1W        W34691   6.772  18.328   7.395  0.0264 -0.0230  0.4675
    1W        W34692  26.213   0.885   8.991  0.1641 -0.0800 -0.0326
    1W        W34693  14.223   9.573   0.666  0.2795 -0.0478 -0.2769
    1W        W34694   5.500  28.343   5.231 -0.2423 -0.0541 -0.2213
    1W        W34695   9.919   3.999   0.244 -0.4685  0.3391  0.0509
    1W        W34696  10.661   8.697   9.498 -0.2843 -0.4419  0.0592
    1W        W34697  13.636   8.255   7.715  0.0666  0.1587  0.0180
    1W        W34698   5.640  15.627   0.256 -0.0824 -0.2724 -0.1911
    1W        W34699  16.468  21.208   1.312 -0.1242 -0.4050  0.1530
    1W        W34700   4.406   7.392   6.877  0.0277  0.1074 -0.0798
    1W        W34701  28.791  23.230   6.598  0.4024 -0.0374  0.2669
    1W        W34702  25.183  17.003   8.633  0.0403  0.1753  0.1133
    1W        W34703   3.215  29.796   0.748 -0.0379  0.0417  0.0480
    1W        W34704   0.671   6.525   0.848 -0.0822  0.0120  0.0433
    1W        W34705  21.971  29.847   7.576  0.1049  0.2414 -0.0989
    1W        W34706  15.780   0.605   7.258 -0.1046  0.1957 -0.0759
    1W        W34707  23.771  22.412   8.070 -0.0582  0.1042 -0.1860
    1W        W34708   4.668  14.599   2.991  0.2258 -0.0137  0.3451
    1W        W34709  12.390  20.404   7.247 -0.1642 -0.1023  0.5505
    1W        W34710  27.241   0.832   0.058 -0.2087 -0.1366  0.2211
    1W        W34711  21.438  23.354   8.570  0.0822  0.1036 -0.1025
    1W        W34712   5.318  17.338   6.071  0.2501  0.0770 -0.0956
    1W        W34713   5.862   4.743   8.645  0.1120  0.2567 -0.0806
    1W        W34714  25.596  21.702   1.905  0.0174  0.0087  0.3529
    1W        W34715  17.208  21.404   8.299 -0.0349 -0.3314  0.1651
    1W        W34716  26.730  27.561   7.217 -0.1112 -0.1603 -0.1540
    1W        W34717  25.470  23.532   8.248 -0.0548 -0.2334 -0.3059
    1W        W34718  21.056  21.812   9.136  0.1782 -0.1765  0.1403
    1W        W34719  18.604   7.129   2.508 -0.0173 -0.0488  0.1221
    1W        W34720  28.088  16.751   2.851  0.0335 -0.0801  0.3424
    1W        W34721  25.924  27.783   0.137  0.0716 -0.0213 -0.1618
    1W        W34722   0.811  27.495   0.879 -0.0173 -0.4547  0.0113
    1W        W34723   3.480  23.371   7.435 -0.1637  0.2696  0.1335
    1W        W34724  12.835  18.394   9.099  0.1502 -0.1330  0.2986
    1W        W34725   9.804  10.598   1.467 -0.1793 -0.0056 -0.0641
    1W        W34726  29.270  24.503   8.837  0.0635 -0.2817 -0.3117
    1W        W34727  10.353  11.343   7.591  0.0149  0.1906  0.2697
    1W        W34728   2.622  22.212   8.684  0.1048 -0.1602  0.1954
    1W        W34729   6.738  28.251   6.240  0.2419 -0.1763  0.0256
    1W        W34730  28.539  20.710   8.725 -0.0493  0.3834  0.1289
    1W        W34731  14.726  24.549   7.982 -0.0258 -0.1257 -0.1152
    1W        W34732  22.088   4.967   2.090  0.2610 -0.2636 -0.1828
    1W        W34733   9.625   7.867   0.924 -0.4645 -0.1125 -0.1841
    1W        W34734   0.473  17.228   7.846  0.2944 -0.4081  0.1820
    1W        W34735  24.807  13.691   1.619  0.3445 -0.3515 -0.0487
    1W        W34736  27.525   1.928   0.248 -0.0999  0.0156  0.2088
    1W        W34737   9.289  29.203   0.797  0.1279  0.0096  0.1500
    1W        W34738  23.878  23.952   0.298  0.3251 -0.0492 -0.3743
    1W        W34739  25.417   9.679   8.077 -0.2931  0.1381  0.0095
    1W        W34740  28.907  24.846   6.417 -0.0165  0.0393 -0.2802
    1W        W34741  10.317  21.993   1.424 -0.1532 -0.3869 -0.1837
    1W        W34742   1.776  20.424   9.522 -0.1629  0.0139  0.1640
    1W        W34743  16.792  10.646   8.953  0.0852  0.4291  0.0568
    1W        W34744   9.113  10.719   2.046 -0.3394 -0.2241  0.0774
    1W        W34745   9.175  26.995   8.232 -0.0983  0.1116  0.0844
    1W        W34746  20.873   8.227   9.030  0.1556  0.4092  0.0813
    1W        W34747   9.197   1.638   6.940 -0.0072 -0.1797  0.1699
    1W        W34748   8.517   0.508   1.400 -0.0647  0.2682 -0.0540
    1W        W34749  12.161  26.259   8.114  0.0937 -0.0001 -0.4153
    1W        W34750  12.587  10.960   1.814  0.3005 -0.0806 -0.1622
    1W        W34751  16.486   1.172   3.506  0.1253 -0.0536  0.2276
    1W        W34752  29.031  28.734   1.694  0.1002  0.1836 -0.1369
    1W        W34753   5.875  10.685   6.232 -0.1025 -0.1082  0.3312
    1W        W34754  25.344  18.171   8.482 -0.1786  0.0790 -0.1286
    1W        W34755  15.266   4.482   1.724  0.1660 -0.3358 -0.0818
    1W        W34756   1.266  22.080   1.184  0.2575 -0.1222  0.0984
    1W        W34757   9.968  24.492   5.755  0.1686 -0.0524 -0.0637
    1W        W34758  25.442  10.890   0.456 -0.1649  0.3663  0.0815
    1W        W34759  24.331   3.087   1.314  0.1253 -0.2378  0.2508
    1W        W34760  17.462  10.123   8.255 -0.0079  0.1070  0.2051
    1W        W34761   4.340  26.462   9.188 -0.0546 -0.0874 -0.0031
    1W        W34762  24.812  10.234   8.992 -0.3021 -0.2215 -0.0734
    1W        W34763  24.271  16.351   8.160 -0.4626  0.0667 -0.3335
    1W        W34764  10.470  24.554   6.949 -0.2677 -0.1006  0.1040
    1W        W34765  17.432  25.088   6.829 -0.0575  0.0124 -0.2049
    1W        W34766   4.260  17.144   8.306  0.4881  0.3012 -0.0908
    1W        W34767  19.249  13.404   8.104  0.1280  0.0019  0.0684
    1W        W34768   1.216  20.896   7.408 -0.0174 -0.0584 -0.3383
    1W        W34769   3.228   3.378   8.143  0.1738  0.0784  0.1612
    1W        W34770  29.629  26.783   6.335 -0.2305 -0.1560 -0.1133
    1W        W34771   0.240  25.094   2.686  0.0946  0.0269  0.0260
    1W        W34772  24.699  22.765   8.894  0.0737 -0.0714 -0.3364
    1W        W34773   5.943  20.671   7.506 -0.0368  0.1121 -0.0282
    1W        W34774  21.515  28.709   3.683  0.0111  0.0188 -0.2223
    1W        W34775  24.108  26.511   7.136  0.0561  0.0251 -0.0911
    1W        W34776   7.798  14.417   7.523 -0.1156 -0.2270 -0.2339
    1W        W34777   7.713   6.724   9.167  0.0511  0.1614  0.3248
    1W        W34778  13.183  28.266   6.674 -0.1298 -0.1789 -0.2737
    1W        W34779   9.150   8.421   7.254 -0.1141 -0.0955 -0.0297
    1W        W34780   1.988   6.578   1.437 -0.2102  0.0990 -0.0509
    1W        W34781  23.646  26.127   8.515  0.1900  0.0003 -0.0121
    1W        W34782   9.006  22.817   5.689  0.1713  0.3388 -0.2190
    1W        W34783  23.521  13.412   0.649 -0.0037  0.0869 -0.1609
    1W        W34784   4.424   8.855   7.229  0.0199  0.1004 -0.2710
    1W        W34785  24.545   9.022   8.655 -0.2968  0.1033 -0.1014
    1W        W34786   8.339  15.712   2.774 -0.2300 -0.2912 -0.0267
    1W        W34787   5.253   3.953   6.642 -0.1677  0.0637  0.1089
    1W        W34788  12.397  18.421   8.365  0.1590 -0.1224 -0.0693
    1W        W34789   9.244   6.239   7.603 -0.3043  0.0496  0.0124
    1W        W34790  15.319   3.863   0.210 -0.0275  0.1593 -0.4177
    1W        W34791   7.473  17.600   9.154 -0.1893  0.2366  0.5380
    1W        W34792   5.217  20.542   6.728  0.4610  0.1906 -0.3240
    1W        W34793  13.658   2.481   8.799  0.4450 -0.1606 -0.1029
    1W        W34794  25.015  15.559   1.324  0.2066 -0.4176 -0.4362
    1W        W34795  12.457   7.963   0.217  0.0033 -0.1089 -0.1535
    1W        W34796  28.145   6.735   0.918 -0.0302  0.1926  0.0049
    1W        W34797   1.102  20.576   9.040 -0.0729 -0.1818 -0.0868
    1W        W34798   0.797  28.590   0.658  0.3229 -0.0778  0.0534
    1W        W34799  22.069   5.413   1.371 -0.3234 -0.1953 -0.1746
    1W        W34800  14.936  14.964   1.703 -0.0419 -0.1776 -0.0786
    1W        W34801  22.581  26.009   8.377  0.0678 -0.0364  0.0792
    1W        W34802  28.113  15.574   7.065 -0.1943 -0.0589 -0.0125
    1W        W34803  21.520  21.109   6.664  0.1156  0.2740 -0.0600
    1W        W34804  17.040  17.493   6.464  0.1079 -0.2349  0.2260
    1W        W34805   4.572   3.153   1.783  0.1922  0.0582  0.1133
    1W        W34806  20.254  21.936   0.083  0.0255  0.1469 -0.3307
    1W        W34807  24.985  27.162   8.151 -0.2306  0.0929 -0.1751
    1W        W34808   0.997  14.410   9.116 -0.1411 -0.0902 -0.1397
    1W        W34809   2.124   5.870   2.817  0.1242 -0.0173  0.0918
    1W        W34810  27.567  17.349   2.194  0.1402  0.2745  0.1085
    1W        W34811  11.305  25.535   7.444 -0.2406 -0.1231  0.1338
    1W        W34812  18.449  20.716   6.070  0.0969  0.0663 -0.0820
    1W        W34813  17.555   2.628   3.756 -0.2368  0.1715  0.1728
    1W        W34814  13.868  22.343   0.110 -0.0734 -0.1995 -0.2418
    1W        W34815  11.281  15.825   8.462  0.3099 -0.2278  0.0160
    1W        W34816  15.494  28.516   7.984 -0.0964 -0.2676 -0.0673
    1W        W34817   3.471  20.014   1.358 -0.0567  0.1480  0.3288
    1W        W34818  17.663   8.708   8.209 -0.0100 -0.1210  0.0123
    1W        W34819  18.846   3.969   1.987 -0.1931 -0.1097 -0.0438
    1W        W34820  15.054   5.243   8.917  0.4016  0.1512 -0.2334
    1W        W34821  24.454  13.690   7.958 -0.1027 -0.3214 -0.1405
    1W        W34822  25.882  20.854   9.034 -0.0092 -0.0721 -0.4454
    1W        W34823  23.786  26.834   7.264 -0.1532  0.0659 -0.0478
    1W        W34824   8.368  10.653   0.991 -0.0519  0.1657  0.0326
    1W        W34825   7.448  28.539   1.570  0.1157  0.1844 -0.4208
    1W        W34826  16.595  28.763   6.781 -0.3100 -0.1130 -0.0449
    1W        W34827  21.979   9.171   8.833  0.0120  0.1569  0.0240
    1W        W34828  12.930  28.513   7.836 -0.2013  0.1520  0.0572
    1W        W34829   6.694   5.559   7.656  0.0666  0.0559 -0.1901
    1W        W34830  12.720  29.749   0.525  0.1704  0.0010  0.3526
    1W        W34831  28.602  14.189   7.560  0.2797 -0.1103  0.0056
    1W        W34832   7.651   6.533   8.707  0.1294 -0.0641  0.1786
    1W        W34833  27.994  19.757   1.005 -0.1677 -0.1853 -0.1114
    1W        W34834  11.025  23.622   8.663  0.0569  0.0710  0.3206
    1W        W34835  12.820   3.090   9.424  0.1100  0.2172  0.1200
    1W        W34836  12.999   7.980   3.201  0.0858  0.0198 -0.1059
    1W        W34837  28.375   9.260   0.562 -0.0308 -0.1430 -0.1701
    1W        W34838  27.602  20.004   7.923  0.1334 -0.0109 -0.2243
    1W        W34839   0.399   9.730   6.650 -0.1184 -0.3992  0.0750
    1W        W34840  18.881  27.577   0.557 -0.0156  0.1146 -0.2411
    1W        W34841  21.668  26.983   0.729  0.3855  0.0975  0.1492
    1W        W34842  11.608   5.076   3.243 -0.0299  0.0923  0.4097
    1W        W34843   8.991   5.079   1.839 -0.1097  0.0000 -0.1008
    1W        W34844   9.379  27.528   7.037  0.2035 -0.0761  0.1980
    1W        W34845   2.053   5.971   8.532  0.1367 -0.1332 -0.4541
    1W        W34846   2.391  11.526   0.858 -0.1796 -0.1574  0.2534
    1W        W34847   2.392  23.187   5.698 -0.0557  0.2336 -0.1442
    1W        W34848   7.110  15.264   6.629 -0.0187 -0.2433  0.2332
    1W        W34849   5.329  12.994   8.885 -0.0496  0.1540 -0.2226
    1W        W34850   0.425  17.718   2.151  0.0396 -0.1588 -0.1057
    1W        W34851  11.805  27.947   2.215  0.2508 -0.1017 -0.1867
    1W        W34852  12.353   5.459   3.770  0.2731  0.0693  0.0264
    1W        W34853  26.735  10.237   1.759  0.0163 -0.0227 -0.2619
    1W        W34854  17.066  14.083   8.165  0.2116 -0.0661 -0.0060
    1W        W34855  28.893   2.778   9.242 -0.0504  0.2059 -0.3183
    1W        W34856  27.604  27.705   2.727  0.0653  0.1542  0.2793
    1W        W34857  10.673  28.621   8.713  0.0131  0.1874 -0.3308
    1W        W34858   7.670  23.910   5.939  0.2121 -0.0029 -0.0275
    1W        W34859  10.976   6.140   9.309  0.1121 -0.1439  0.2629
    1W        W34860   5.230  19.033   1.424  0.1724  0.0261 -0.0989
    1W        W34861   4.739   8.463   8.487  0.1577  0.2477  0.0146
    1W        W34862   9.841  13.208   8.489 -0.1026  0.3283 -0.2245
    1W        W34863   9.681  24.867   6.506 -0.1570  0.1607  0.0226
    1W        W34864  15.024   8.506   9.203  0.1860 -0.0952  0.2700
    1W        W34865  16.414   0.255   1.874  0.2354 -0.1544  0.0754
    1W        W34866   9.000  23.419   6.491  0.0639 -0.3248 -0.0908
    1W        W34867   6.805  27.053   7.041  0.2955  0.3551 -0.1174
    1W        W34868  20.842  25.023   7.564 -0.4036  0.2572  0.0413
    1W        W34869   7.455  26.460   0.674 -0.1691 -0.1765 -0.1664
    1W        W34870   5.201  14.638   6.993  0.2466 -0.0102 -0.1268
    1W        W34871   2.710  21.826   8.417  0.2337  0.0362  0.2645
    1W        W34872  17.514  21.368   8.743  0.3717 -0.0966  0.2633
    1W        W34873  13.232  18.797   2.046  0.0269 -0.1921 -0.2917
    1W        W34874   3.630  23.545   8.537  0.0494 -0.3034  0.1630
    1W        W34875   0.658  18.471   2.675 -0.1040  0.0858 -0.0097
    1W        W34876   1.553   4.014   8.416  0.1057 -0.2093 -0.0398
    1W        W34877  18.670   2.831   8.352  0.0786 -0.2101  0.0729
    1W        W34878  10.911  21.998   7.276  0.0604 -0.0626 -0.1116
    1W        W34879   3.360  14.157   0.718  0.3365 -0.0937 -0.0111
    1W        W34880  18.924  10.425   2.975  0.1171  0.1631 -0.4028
    1W        W34881  24.678  16.176   8.981  0.1863 -0.0120 -0.0220
    1W        W34882  21.388  18.081   7.392  0.0173 -0.2673 -0.0450
    1W        W34883   1.714   5.597   1.437  0.0250  0.0006  0.1213
    1W        W34884   9.531  22.688   1.047 -0.0170 -0.1063  0.0463
    1W        W34885  24.969  18.741   1.603  0.1040 -0.1508 -0.2647
    1W        W34886  12.272  11.688   9.471 -0.0634 -0.0159  0.1058
    1W        W34887   5.234  22.047   9.257  0.2421 -0.0162  0.2027
    1W        W34888  27.675  19.689   1.825  0.0804  0.0277  0.0661
    1W        W34889  11.560  27.116   8.223  0.1164 -0.1137  0.1057
    1W        W34890  11.385  24.917   8.863 -0.1172 -0.1926  0.2607
    1W        W34891   8.035  26.388   8.124 -0.3796 -0.1317  0.1652
    1W        W34892  14.177  11.853   2.092 -0.0928  0.0293 -0.2094
    1W        W34893  28.987   8.037   2.613  0.1878 -0.2474  0.1860
    1W        W34894   6.710  10.750   0.739 -0.1103  0.1353  0.2606
    1W        W34895   9.977  13.065   1.783  0.1711  0.1296  0.0188
    1W        W34896  14.894  13.385   8.285  0.0321  0.0160 -0.3111
    1W        W34897  23.168  19.634   8.748 -0.1474  0.3732  0.0791
    1W        W34898   5.596   0.889   9.330  0.2712  0.2199  0.0618
    1W        W34899  16.387  23.893   6.098  0.1005  0.0094 -0.0548
    1W        W34900   5.324   2.236   0.775 -0.3635 -0.1528  0.1315
    1W        W34901   3.760   6.892   1.918  0.1769  0.1885  0.1602
    1W        W34902  15.836  25.824   1.944  0.0700 -0.1339 -0.2399
    1W        W34903  24.917   6.197   3.537 -0.0856 -0.0535 -0.4078
    1W        W34904   4.805   6.325   0.754 -0.0331 -0.0593  0.2308
    1W        W34905  11.499   7.234   2.404  0.1066 -0.2645  0.2254
    1W        W34906  28.862   8.645   3.168 -0.2321  0.0675 -0.2684
    1W        W34907   2.511  13.637   1.675 -0.3141  0.0236 -0.3188
    1W        W34908  28.409   5.089   8.886 -0.3628 -0.4579  0.2558
    1W        W34909  19.932   7.946   2.578  0.0087  0.0121 -0.3291
    1W        W34910   5.720  25.194   3.027 -0.1048 -0.1228  0.0162
    1W        W34911  24.129  21.424   2.126 -0.0553  0.0731  0.0249
    1W        W34912   3.659   9.125   9.375  0.5171 -0.0613 -0.2975
    1W        W34913  23.302   4.632   8.863  0.0369 -0.0545  0.3146
    1W        W34914   6.627   3.984   0.447 -0.0839  0.0695 -0.2739
    1W        W34915  11.909  24.218   2.330  0.5088  0.2844  0.0510
    1W        W34916  18.596  21.892   1.890  0.1253  0.0123  0.4659
    1W        W34917   2.982  10.414   7.026 -0.1749 -0.0705  0.4163
    1W        W34918  23.967  16.901   0.053  0.2185 -0.1331  0.0975
    1W        W34919  13.288  17.524   8.974 -0.0538  0.1007 -0.0711
    1W        W34920   0.412  12.765   2.144 -0.5018 -0.0865  0.1110
    1W        W34921   9.695  27.041   8.106 -0.1495  0.1539  0.0840
    1W        W34922   2.283  28.061   9.229  0.3324 -0.1151 -0.1075
    1W        W34923  25.067  14.202   2.411 -0.1521  0.0063 -0.0595
    1W        W34924  13.862  27.618   0.408  0.0503  0.2187  0.0103
    1W        W34925   2.044  25.696   0.359  0.0139  0.1929  0.1841
    1W        W34926   5.894   0.319   0.057  0.2287  0.0076 -0.0977
    1W        W34927  21.763  26.743   0.162 -0.0923 -0.2108 -0.0527
    1W        W34928  16.700   5.925   2.181 -0.0138 -0.4158 -0.2858
    1W        W34929  10.678   1.877   7.450  0.0487  0.2318 -0.0470
    1W        W34930  15.377   5.731   2.997 -0.0684  0.2496  0.2277
    1W        W34931   0.487   8.871   7.416 -0.0587  0.1807 -0.1912
    1W        W34932  18.619  15.202   2.133 -0.0962  0.0837  0.0466
    1W        W34933   2.223  18.867   7.812  0.1463  0.1311  0.0624
    1W        W34934  14.749  10.658   8.617 -0.2845 -0.0373  0.0115
    1W        W34935   3.291  22.824   8.518  0.1827  0.0111 -0.4268
    1W        W34936  25.427   8.196   2.698 -0.1747  0.0690 -0.0325
    1W        W34937  27.907  12.719   0.941 -0.2172  0.0223  0.1638
    1W        W34938  28.228   7.307   7.537  0.1886  0.1195 -0.0043
    1W        W34939  23.700  18.309   2.445 -0.1250  0.0168  0.2150
    1W        W34940  26.155   4.527   0.810 -0.0530 -0.0558  0.1259
    1W        W34941   1.037  15.440   0.238 -0.0479 -0.1318 -0.4499
    1W        W34942  18.006  21.367   8.522 -0.1529  0.0916 -0.1389
    1W        W34943  10.563  17.590   1.592 -0.2761 -0.1170  0.2232
    1W        W34944   8.157   6.382   8.587 -0.0070  0.0056 -0.1680
    1W        W34945  23.021   8.291   2.049  0.1828  0.1085 -0.2382
    1W        W34946  12.332  14.258   1.673 -0.1560  0.0355 -0.1829
    1W        W34947  10.614   9.145   1.279 -0.1717  0.2596 -0.0690
    1W        W34948   5.394  11.908   0.702  0.2096  0.2333  0.1919
    1W        W34949  15.945  10.078   2.612  0.3642  0.0542 -0.1328
    1W        W34950  17.885   0.534   8.583 -0.0569 -0.2375  0.2924
    1W        W34951   7.841   9.458   2.197  0.0898  0.3769 -0.0157
    1W        W34952  15.435   2.332   0.848  0.4668 -0.1202 -0.0355
    1W        W34953  21.969  13.130   8.721  0.2401 -0.0590 -0.1423
    1W        W34954  13.579   3.688   7.973  0.2646  0.0776  0.1267
    1W        W34955   7.104  11.863   6.888  0.1425  0.0882 -0.1409
    1W        W34956  25.123  29.586   3.544  0.2349  0.0316  0.1037
    1W        W34957   1.087  11.384   7.774 -0.4045 -0.1388 -0.1101
    1W        W34958   6.898   7.648   8.140 -0.0115 -0.0974  0.2433
    1W        W34959   5.612  21.335   1.625 -0.2101  0.1029 -0.2832
    1W        W34960   9.237   1.025   1.191  0.0514  0.0837 -0.2279
    1W        W34961  20.405   6.368   0.811 -0.3584  0.0833  0.1374
    1W        W34962  12.361  28.753   1.431  0.3549 -0.1629 -0.0540
    1W        W34963   0.522   2.424   0.012  0.2884 -0.2074  0.2728
    1W        W34964   6.534   2.441   8.373 -0.2788  0.0608  0.3989
    1W        W34965  26.978  27.572   6.786 -0.1973  0.0497  0.2582
    1W        W34966  27.376  20.519   2.019  0.1961 -0.0917 -0.0471
    1W        W34967  22.883   4.481   1.560  0.0111  0.0154  0.2180
    1W        W34968  15.939  19.297   1.251 -0.1245  0.4169 -0.0011
    1W        W34969  26.361   8.723   1.551  0.3892  0.0368  0.2504
    1W        W34970   7.437   5.408   9.466 -0.0333 -0.0395  0.1281
    1W        W34971  20.912  29.691   8.796 -0.0185  0.0130  0.0290
    1W        W34972  27.993   0.181   7.757 -0.2703  0.2515 -0.0313
    1W        W34973   7.821   9.668   0.181  0.0593 -0.3655 -0.1010
    1W        W34974  13.922  19.401   8.164  0.1301  0.0509 -0.3199
    1W        W34975   3.135  11.695   6.661 -0.1837 -0.0904  0.1713
    1W        W34976   9.873  10.029   7.965 -0.0792  0.4124 -0.0185
    1W        W34977   7.216  19.569   8.326  0.0994  0.0639 -0.2410
    1W        W34978   4.641   2.541   7.607 -0.3628  0.0460 -0.0871
    1W        W34979  23.145  15.320   9.388 -0.0191  0.0001 -0.0251
    1W        W34980  10.972   9.699   7.038  0.1245 -0.3344 -0.0257
    1W        W34981  27.663   6.003   2.103 -0.0846 -0.3064 -0.5292
    1W        W34982   0.789  24.261   7.360  0.0410 -0.1739 -0.1613
    1W        W34983  26.103  24.697   2.389 -0.2223 -0.0137  0.0375
    1W        W34984  19.727  22.743   6.087  0.1659  0.2584 -0.1378
    1W        W34985   8.945   4.412   2.701 -0.1447  0.0647 -0.0466
    1W        W34986   7.285  17.584   0.366  0.2551  0.1976 -0.0523
    1W        W34987  29.748  23.373   0.735 -0.2201  0.0825  0.0213
    1W        W34988  18.977  15.997   1.117 -0.1231 -0.1225  0.2417
    1W        W34989   5.320  10.146   0.946 -0.2089 -0.1431 -0.2784
    1W        W34990   5.325  27.063   0.009 -0.2951  0.1756  0.1247
    1W        W34991   6.091  21.087   0.913  0.1229  0.0313  0.2087
    1W        W34992  22.555  28.805   2.473 -0.0032 -0.1086  0.2553
    1W        W34993  27.442  18.261   8.490  0.0683  0.0516 -0.0444
    1W        W34994  12.376  25.161   0.967 -0.3208 -0.0967  0.1018
    1W        W34995   5.500  15.980   7.764 -0.2334  0.0710 -0.0989
    1W        W34996  10.347  23.106   1.148  0.0012  0.1480  0.1563
    1W        W34997  27.920  16.845   7.930 -0.0592 -0.1950 -0.0734
    1W        W34998   4.552  26.834   7.143 -0.2186  0.1629  0.1196
    1W        W34999  25.040   5.003   8.681 -0.2333 -0.1217 -0.0713
    1W        W35000   5.164   0.637   6.712 -0.0962 -0.1798 -0.3273
    1W        W35001   4.753  23.726   1.986 -0.0633  0.1577  0.0400
    1W        W35002  21.068  15.596   0.811  0.2635 -0.1071  0.1009
    1W        W35003   3.992   3.602   3.568  0.1719  0.1208 -0.0428
    1W        W35004  15.801  19.071   6.291 -0.1238  0.3769  0.2043
    1W        W35005  19.990  15.288   6.775 -0.2425  0.2154  0.2465
    1W        W35006  16.715  11.101   7.305  0.0772 -0.0404  0.1118
    1W        W35007  10.471  21.714   7.075  0.0780 -0.1039 -0.0825
    1W        W35008  26.863  24.869   2.976 -0.1223 -0.0142 -0.0215
    1W        W35009   5.112   8.823   0.236  0.0024  0.2861  0.0718
    1W        W35010  18.878  27.651   9.006 -0.0865 -0.1736  0.2750
    1W        W35011   5.279   1.322   9.450  0.1062 -0.2157  0.3096
    1W        W35012   4.816  23.270   1.107  0.2562 -0.0516 -0.1825
    1W        W35013   6.747   9.839   1.016  0.0353 -0.2713 -0.0771
    1W        W35014  28.894   3.109   8.174  0.3109  0.0879 -0.2247
    1W        W35015  25.250   2.810   1.305  0.3276  0.0216 -0.0062
    1W        W35016  11.784  13.833   8.278 -0.3046 -0.1100 -0.1170
    1W        W35017  18.746  19.173   6.718  0.3371  0.0007 -0.0498
    1W        W35018  20.607  26.474   8.723  0.2390 -0.1518 -0.0195
    1W        W35019  28.735  21.844   7.829  0.3726  0.3709  0.2480
    1W        W35020  23.938  21.354   1.619  0.1385  0.2212  0.4585
    1W        W35021  29.445  15.368   0.220 -0.1080 -0.1053  0.3076
    1W        W35022  14.572   2.041   8.621 -0.1030 -0.0062  0.0007
    1W        W35023   7.556  15.517   8.706  0.0139 -0.2622  0.1614
    1W        W35024   9.717  19.520   9.507  0.0998  0.0996 -0.1872
    1W        W35025   5.039  11.709   0.966 -0.0943  0.1315  0.2113
    1W        W35026   9.077   1.345   7.849  0.0657  0.1239  0.0414
    1W        W35027  14.181  19.061   7.951 -0.1104 -0.1031 -0.1453
    1W        W35028  26.647  16.032   0.877  0.3072 -0.2863 -0.2359
    1W        W35029   0.894  15.518   8.667  0.4453 -0.0037  0.3015
    1W        W35030   2.662   0.098   2.280 -0.2799 -0.0183  0.1989
    1W        W35031   1.234  17.831   7.644  0.0571 -0.0721  0.0575
    1W        W35032  12.667  13.367   9.519  0.3637  0.1495 -0.0740
    1W        W35033  24.669   6.325   2.366  0.0144  0.1037 -0.1640
    1W        W35034  21.779   3.671   3.382 -0.1990  0.0296 -0.1154
    1W        W35035   5.937  28.172   1.433  0.2242 -0.2156 -0.1840
    1W        W35036  16.227  28.360   0.778 -0.2325  0.0415  0.1578
    1W        W35037   1.400  29.098   8.587  0.1119  0.1387 -0.0743
    1W        W35038  12.831   1.332   1.704  0.1031  0.1168  0.0860
    1W        W35039  18.921   9.521   0.969 -0.1492  0.4999  0.1047
    1W        W35040  27.806  14.173   2.068  0.1339 -0.0998 -0.2149
    1W        W35041   9.190  26.134   5.750 -0.1402  0.0686  0.2732
    1W        W35042  10.293   7.823   2.622 -0.4429 -0.2164 -0.0615
    1W        W35043  19.839  20.053   7.867 -0.3165  0.2000 -0.0960
    1W        W35044  22.989   0.739   3.124 -0.0007  0.0400  0.0537
    1W        W35045   7.192  16.165   7.206 -0.1006 -0.2030 -0.3495
    1W        W35046  23.963   1.886   0.876 -0.4106 -0.1345 -0.1499
    1W        W35047   8.855  13.953   1.765 -0.1124 -0.1635  0.0361
    1W        W35048   8.647  16.579   9.258  0.0111 -0.1889 -0.3484
    1W        W35049  18.449  22.605   8.369  0.0347  0.2563  0.3281
    1W        W35050  14.211  23.434   5.971  0.1630  0.0351 -0.2259
    1W        W35051  26.939  24.920   0.310 -0.1884  0.4330 -0.4464
    1W        W35052  23.041   2.314   0.871 -0.2143  0.1894  0.0393
    1W        W35053   4.450  27.565   9.206 -0.1782  0.2223 -0.2082
    1W        W35054   7.661   9.772   8.164 -0.1207 -0.3633  0.0095
    1W        W35055  29.630  10.279   6.376  0.0837  0.2345 -0.0420
    1W        W35056  25.407  20.338   1.046 -0.1301  0.1264  0.3134
    1W        W35057   5.881  20.562   1.345 -0.1579 -0.0701  0.2010
    1W        W35058   8.377  22.071   1.242 -0.1699  0.0790  0.1931
    1W        W35059  19.633   0.798   0.260 -0.1425  0.1341  0.0426
    1W        W35060  29.771  15.601   7.276 -0.0059 -0.0338 -0.0798
    1W        W35061  14.841  28.953   2.506 -0.0602 -0.0777  0.1244
    1W        W35062  28.515   2.139   1.861  0.0864 -0.0892 -0.1346
    1W        W35063   0.117  17.662   0.242 -0.2316  0.0817  0.1132
    1W        W35064  20.822  14.167   1.217  0.2860  0.0796  0.3010
    1W        W35065  26.111  15.132   7.890 -0.3818  0.2943 -0.0515
    1W        W35066  18.037   5.998   8.999  0.2295 -0.0693 -0.0471
    1W        W35067   8.465  24.990   5.419  0.0495 -0.6168  0.0219
    1W        W35068   9.143  25.134   0.890 -0.0576  0.0059  0.1339
    1W        W35069  25.603   8.084   0.392 -0.1649 -0.1622  0.2282
    1W        W35070   6.928   7.847   6.978  0.0426  0.0847 -0.1151
    1W        W35071  22.754   9.554   8.664  0.2522  0.0738 -0.0945
    1W        W35072  29.283   0.743   9.197 -0.1378 -0.0520  0.1209
    1W        W35073  15.288  13.744   0.127 -0.0837  0.1989 -0.1488
    1W        W35074  18.000  28.401   2.011  0.0756 -0.1524 -0.2981
    1W        W35075  14.225   0.123   1.467  0.4255  0.2705 -0.3523
    1W        W35076  14.942  18.486   0.674 -0.1411 -0.0553 -0.2255
    1W        W35077  18.305   7.619   0.303  0.2862  0.0172 -0.2645
    1W        W35078  16.549  27.939   7.304 -0.1337 -0.0522 -0.3179
    1W        W35079  13.506   1.366   7.940 -0.3062  0.2562 -0.0596
    1W        W35080  29.776   0.715   9.286 -0.1823 -0.1688 -0.1803
    1W        W35081  28.562  25.863   7.222  0.1457  0.2685 -0.3242
    1W        W35082  23.825  10.216   1.892  0.1398  0.1234  0.0626
    1W        W35083   6.473   0.786   0.689 -0.0318 -0.0759  0.0383
    1W        W35084  27.984  13.986   2.546  0.3788  0.2746  0.2152
    1W        W35085  15.600  27.583   0.828 -0.2835 -0.0244 -0.5269
    1W        W35086  13.159  29.130   8.489 -0.0783 -0.0167  0.0271
    1W        W35087  11.652  12.807   3.230  0.0735  0.0339  0.2112
    1W        W35088   9.627  15.197   0.602  0.0903 -0.0924 -0.2416
    1W        W35089  25.633   4.086   2.101 -0.2608 -0.2035 -0.0720
    1W        W35090  16.602   1.037   2.875 -0.1468  0.0784  0.2493
    1W        W35091  19.321  16.945   1.207  0.1938 -0.0433 -0.1743
    1W        W35092   3.416   2.268   2.193 -0.3011  0.0745  0.1443
    1W        W35093  12.553  17.086   6.710 -0.1523  0.0087 -0.3126
    1W        W35094  22.616  25.361   0.017  0.1333 -0.2454  0.2202
    1W        W35095  10.605   8.206   0.943  0.0425 -0.0412  0.0475
    1W        W35096  26.754  27.206   7.639  0.2249 -0.2737  0.0069
    1W        W35097  23.502  18.225   0.115  0.2328 -0.2762  0.0761
    1W        W35098  21.225  25.019   8.700 -0.2368  0.0907  0.5163
    1W        W35099  23.301   4.945   7.937  0.0907 -0.0401 -0.0616
    1W        W35100  28.810   1.677   2.525 -0.1812  0.2246 -0.2151
    1W        W35101   4.653   4.159   9.196 -0.0370  0.4317 -0.0574
    1W        W35102  24.274  23.247   1.232  0.0585 -0.0452  0.1332
    1W        W35103  19.343  25.206   7.579  0.0320  0.1903  0.1301
    1W        W35104  29.263  17.376   2.601  0.0786 -0.1116 -0.1645
    1W        W35105   8.959  21.854   9.268 -0.1461 -0.2050  0.1094
    1W        W35106  26.496   3.444   6.538 -0.0082  0.0133 -0.0874
    1W        W35107  14.379  24.951   7.804  0.1349 -0.4211 -0.0780
    1W        W35108   2.047  17.333   1.851  0.0655  0.0843 -0.0173
    1W        W35109  28.350  17.418   9.102  0.1970  0.2743  0.0590
    1W        W35110   2.412   4.315   8.526 -0.1228 -0.2564 -0.0971
    1W        W35111  16.286   1.479   0.439 -0.4767 -0.1296  0.0825
    1W        W35112   9.906   0.333   0.647  0.2359 -0.0233  0.2427
    1W        W35113  10.104  13.458   1.477 -0.1210 -0.3771 -0.1801
    1W        W35114  16.325   5.837   1.856 -0.2408  0.0704  0.0123
    1W        W35115  19.216   8.998   8.772 -0.2657  0.1911 -0.2621
    1W        W35116   0.387  23.938   8.299  0.1591  0.1282 -0.1227
    1W        W35117   8.559  14.565   5.914  0.3029 -0.0641  0.2654
    1W        W35118  25.027  16.442   0.801 -0.1274 -0.1127  0.2389
    1W        W35119  10.051  21.785   6.739 -0.0074  0.0200  0.0427
    1W        W35120  11.562  13.193   6.795 -0.1111 -0.3411 -0.1342
    1W        W35121   3.262  24.209   5.406 -0.1097  0.1765  0.0609
    1W        W35122   7.106   8.565   0.354 -0.1818 -0.0862  0.1229
    1W        W35123  28.750   2.058   8.781  0.0164  0.1030 -0.1327
    1W        W35124  20.177   9.205   7.371 -0.3475  0.0597 -0.1708
    1W        W35125  13.019  19.498   5.928 -0.0328  0.1834 -0.0910
    1W        W35126   4.101   4.430   1.962 -0.0026  0.4465 -0.0264
    1W        W35127  14.952   7.114   8.623  0.0107 -0.0137  0.0056
    1W        W35128  20.362   4.795   9.397  0.2985 -0.4215  0.3786
    1W        W35129   0.330  14.682   6.782 -0.0908 -0.1001 -0.1842
    1W        W35130   3.083  15.795   2.188 -0.1245 -0.0369 -0.2015
    1W        W35131  28.246  24.965   2.433  0.1250  0.1068 -0.2044
    1W        W35132  11.531   2.048   1.855  0.1621  0.0500  0.0137
    1W        W35133  21.116   1.232   2.486  0.1286 -0.1154  0.0924
    1W        W35134  19.917  25.795   6.800 -0.1117 -0.1798  0.1522
    1W        W35135   8.883   3.710   2.574 -0.2738  0.0311 -0.3160
    1W        W35136  10.557  16.506   1.308 -0.0395  0.4235  0.3132
    1W        W35137  20.381  27.624   8.032 -0.0697 -0.0838 -0.0215
    1W        W35138  16.423   0.419   8.391 -0.0337 -0.0776  0.3584
    1W        W35139   4.528   3.960   8.027 -0.1111  0.1528  0.2227
    1W        W35140   8.033  25.257   0.384  0.0355  0.1420 -0.0364
    1W        W35141   5.086   4.433   6.469  0.2293 -0.1161 -0.2300
    1W        W35142   5.089  16.750   1.424  0.1269  0.0772 -0.2085
    1W        W35143   1.603  22.379   1.433 -0.1555  0.3624  0.0059
    1W        W35144  20.340   8.984   2.122  0.1634  0.0270 -0.2039
    1W        W35145  23.257  26.794   7.298  0.1462  0.2212  0.2763
    1W        W35146  26.349   6.453   0.184  0.0819  0.1299 -0.1221
    1W        W35147  16.741  17.538   2.145 -0.0420 -0.2156 -0.2613
    1W        W35148  22.626   1.523   8.286  0.1534 -0.0295  0.0143
    1W        W35149   1.354  15.665   9.238  0.0489  0.1326  0.1260
    1W        W35150  17.846   0.022   1.086  0.1240  0.0480  0.1720
    1W        W35151   2.111   6.918   7.688  0.0869 -0.0582 -0.0472
    1W        W35152  24.488  26.181   7.223  0.1790 -0.0219  0.0097
    1W        W35153  11.527  25.845   7.781  0.0850 -0.1900  0.0297
    1W        W35154   1.440  16.201   0.619 -0.0946 -0.1905  0.3058
    1W        W35155  13.493   0.272   0.059  0.1212  0.0170 -0.2265
    1W        W35156  24.355  23.837   3.260  0.0987  0.2148  0.2530
    1W        W35157  26.177  28.297   2.876 -0.0476 -0.1654  0.0282
    1W        W35158  28.726   1.898   7.496  0.1376 -0.0917 -0.1695
    1W        W35159   3.162  19.873   7.703 -0.1467 -0.0265  0.2183
    1W        W35160  29.245  13.165   8.771 -0.1618 -0.2074  0.0418
    1W        W35161  14.786  15.040   6.029 -0.0339  0.2817  0.2300
    1W        W35162   7.969  16.997   1.312  0.0022 -0.0202  0.2061
    1W        W35163  22.787   7.824   7.660  0.0342  0.0342 -0.1827
    1W        W35164   0.880   7.064   7.697 -0.1161 -0.2353 -0.0968
    1W        W35165  27.358  23.984   6.922  0.2919  0.0719 -0.2621
    1W        W35166  26.612  10.545   7.565  0.1829 -0.1026 -0.0758
    1W        W35167  12.307  26.058   9.073  0.0807 -0.0146 -0.2137
    1W        W35168   2.498  15.820   7.160  0.0798 -0.2662  0.1198
    1W        W35169  15.459   5.133   7.759  0.0529  0.0515 -0.0028
    1W        W35170  15.590  15.006   0.527 -0.1829  0.4808 -0.1570
    1W        W35171  18.673   3.202   1.652 -0.2399  0.0212 -0.0341
    1W        W35172  20.462  27.096   8.115  0.0477  0.0915  0.2541
    1W        W35173  21.058  24.332   5.556 -0.1909  0.0041  0.5232
    1W        W35174  12.836  19.642   9.081  0.0663 -0.2825  0.0431
    1W        W35175   0.153   6.081   1.479  0.1403 -0.1056  0.0214
    1W        W35176  27.245  20.383   1.044 -0.1083 -0.0771  0.5225
    1W        W35177  29.807  26.194   1.231 -0.6026 -0.2872  0.2785
    1W        W35178  10.894  12.782   1.698 -0.2901  0.0887 -0.1420
    1W        W35179  27.924  25.191   7.310  0.2266  0.2947 -0.3796
    1W        W35180  17.322   9.671   0.844  0.0887  0.1979  0.0004
    1W        W35181   3.486  27.982   7.621 -0.1029 -0.0403  0.1028
    1W        W35182  26.761  14.562   0.036  0.1601  0.0038 -0.0086
    1W        W35183   8.974  24.914   2.259 -0.1352 -0.1634  0.4804
    1W        W35184  21.626  13.483   8.314 -0.2134  0.2952 -0.0891
    1W        W35185  24.960  24.880   1.012  0.1653 -0.1741 -0.1160
    1W        W35186   9.515   1.074   1.761 -0.2839 -0.2599 -0.3382
    1W        W35187  26.297  28.740   9.265 -0.1639 -0.1597 -0.3311
    1W        W35188  15.823  16.743   0.676 -0.0241  0.0255  0.3000
    1W        W35189  12.297   1.730   3.459 -0.3306  0.0650 -0.0122
    1W        W35190   2.434  28.894   7.018  0.0283 -0.2032 -0.0803
    1W        W35191  22.018  24.133   8.365  0.1831  0.1991  0.0516
    1W        W35192  24.477  17.558   2.327 -0.1984  0.3300  0.1744
    1W        W35193  10.616  12.717   0.057 -0.4188  0.3713 -0.0213
    1W        W35194  23.161   9.742   2.958  0.1633 -0.4550 -0.2510
    1W        W35195  11.425  16.766   7.287 -0.0339  0.2640 -0.0169
    1W        W35196   8.658   3.348   2.266 -0.2318  0.3418 -0.0341
    1W        W35197  11.659  15.271   8.295 -0.0144  0.0503 -0.4063
    1W        W35198  28.272  26.806   6.415  0.1118 -0.1290 -0.0169
    1W        W35199  23.155  25.135   7.790 -0.0441  0.0840 -0.2184
    1W        W35200  20.820  13.784   1.628  0.0387  0.0360 -0.0434
    1W        W35201  28.174   3.530   8.131  0.0969 -0.2099  0.2911
    1W        W35202   3.852   0.988   0.670 -0.3455 -0.3042  0.1089
    1W        W35203  11.115   5.055   2.606  0.3338  0.3772 -0.2300
    1W        W35204   8.788  25.743   2.035 -0.0209 -0.0950  0.2903
    1W        W35205  10.614   1.194   8.003  0.2462  0.4358 -0.2331
    1W        W35206  11.063  28.294   3.048 -0.1306 -0.2825  0.1072
    1W        W35207   5.184   0.254   0.553  0.1188  0.1715 -0.2265
    1W        W35208  12.242   1.794   1.258  0.4508 -0.0317 -0.2787
    1W        W35209   7.856  13.412   7.792 -0.1722  0.1352 -0.0461
    1W        W35210   9.838   8.825   7.213 -0.2035 -0.0369 -0.2630
    1W        W35211  11.728  11.841   2.912 -0.2797  0.0478 -0.0501
    1W        W35212  17.865   4.332   2.838  0.1158  0.2653  0.1847
    1W        W35213  29.488  14.195   7.346  0.2701 -0.0712 -0.3764
    1W        W35214  21.180  28.658   9.315  0.0971 -0.0187 -0.2383
    1W        W35215  15.678   0.002   8.142 -0.0833  0.0978  0.4753
    1W        W35216  14.779   6.134   1.065  0.0877  0.0939  0.0016
    1W        W35217  24.000  28.127   8.516  0.4086 -0.0933  0.0520
    1W        W35218  13.581  25.109   6.623  0.1420  0.0667  0.4607
    1W        W35219   3.401  26.065   8.189  0.1103  0.0995 -0.0785
    1W        W35220  27.745  17.461   7.335  0.0010  0.0843 -0.2451
    1W        W35221  13.407  22.131   8.462 -0.0180  0.3144 -0.0164
    1W        W35222  12.882  28.875   2.756 -0.0427  0.1164 -0.3766
    1W        W35223  24.296   0.500   8.288  0.1142 -0.1933 -0.0832
    1W        W35224   8.249   5.433   7.733  0.0700 -0.2609  0.2218
    1W        W35225  29.184   8.774   1.453 -0.1952 -0.3401  0.0150
    1W        W35226   8.927   3.742   8.501 -0.0192  0.3372  0.3286
    1W        W35227   1.764  14.183   2.285 -0.0544 -0.0353 -0.0564
    1W        W35228   0.200  27.459   1.011 -0.2478  0.2171  0.0480
    1W        W35229  13.345  23.902   1.180  0.0390 -0.0438  0.0869
    1W        W35230  16.767  18.496   0.716  0.2681  0.2281  0.3059
    1W        W35231  24.060  14.239   0.426  0.1506 -0.2671 -0.1033
    1W        W35232   7.671   9.805   1.140  0.1029  0.0277  0.2081
    1W        W35233  11.634   1.579   0.232 -0.1321  0.0455  0.2038
    1W        W35234  29.439  24.722   0.341 -0.2843 -0.0559  0.0778
    1W        W35235  29.409   6.213   8.486  0.0190 -0.1639  0.0564
    1W        W35236  18.432  28.318   0.203 -0.1448 -0.0362  0.1018
    1W        W35237  28.008  27.805   2.886  0.0288  0.0946  0.0143
    1W        W35238  19.303  15.021   9.363 -0.0275  0.0330 -0.1914
    1W        W35239  20.161  13.911   7.398  0.0255 -0.1183 -0.4480
    1W        W35240  22.702   2.586   8.350  0.2012 -0.2985 -0.0383
    1W        W35241   8.926  21.942   6.425 -0.4478 -0.2651  0.3785
    1W        W35242  13.092  25.017   6.714  0.1254  0.0890 -0.1291
    1W        W35243  24.094  13.437   1.671 -0.2383 -0.2629  0.2336
    1W        W35244  12.553  23.771   7.142 -0.2722 -0.3582 -0.1924
    1W        W35245  29.732   5.615   7.865  0.1094  0.1742 -0.2273
    1W        W35246   2.291  17.374   0.429  0.0657  0.1906 -0.2619
    1W        W35247   3.481  23.594   0.884  0.1431  0.0510  0.2344
    1W        W35248  12.804  21.991   0.397  0.1152 -0.1005  0.0528
    1W        W35249  18.925   6.741   3.699  0.1185  0.0492  0.4591
    1W        W35250   4.359   9.169   8.099 -0.1120  0.2141 -0.2682
    1W        W35251  12.626  27.999   8.236  0.2880 -0.1072  0.0941
    1W        W35252  23.820  15.128   1.554 -0.2954 -0.0876 -0.1259
    1W        W35253  10.045  20.991   0.698  0.1499 -0.0992  0.2094
    1W        W35254  10.385  17.621   2.633  0.0546  0.0146 -0.1308
    1W        W35255  22.334   1.435   1.558  0.3024  0.0223 -0.2417
    1W        W35256  29.386  12.540   6.447 -0.1818  0.1278 -0.2984
    1W        W35257  12.186   8.772   1.733  0.0730 -0.0288  0.2976
    1W        W35258   8.343   3.855   7.208  0.0006  0.0580  0.0286
    1W        W35259  21.884  29.165   1.778  0.0682 -0.1272 -0.0792
    1W        W35260  29.049   4.097   2.069 -0.2276 -0.0828 -0.1981
    1W        W35261  24.720  19.481   7.249 -0.1478  0.2735  0.3133
    1W        W35262   4.826  27.767   8.951  0.0317 -0.1132  0.2137
    1W        W35263  16.854  16.412   6.974 -0.2025 -0.2814 -0.2846
    1W        W35264  26.006  19.331   9.158 -0.0706 -0.3201  0.2595
    1W        W35265  28.769  11.832   9.168  0.0301 -0.2208  0.1184
    1W        W35266   4.699   6.809   2.471 -0.1746  0.1657 -0.3869
    1W        W35267  27.549  12.580   7.125  0.0226 -0.0206  0.0336
    1W        W35268  22.495  15.571   1.561 -0.0425 -0.0324 -0.0199
    1W        W35269  24.791  29.251   7.206 -0.1810 -0.0446  0.0152
    1W        W35270   9.657  24.145   0.162  0.0166  0.1202 -0.0174
    1W        W35271  16.026  11.539   0.492  0.1371 -0.0098  0.2142
    1W        W35272   1.104  24.358   6.939 -0.0895 -0.0787 -0.0464
    1W        W35273  22.969  14.023   7.633 -0.0702 -0.1592 -0.0283
    1W        W35274  16.644  27.077   8.394  0.1389 -0.1847  0.0970
    1W        W35275  20.086  15.149   7.251 -0.1333 -0.0390  0.1722
    1W        W35276   3.552  11.483   2.344  0.2330 -0.0112  0.0008
    1W        W35277  24.438  11.816   8.692  0.1553 -0.2828 -0.3169
    1W        W35278   8.824  11.898   7.402  0.2036  0.3009 -0.2601
    1W        W35279  16.258  14.906   1.384  0.0819  0.1546 -0.2503
    1W        W35280  11.268   6.520   9.396 -0.2946 -0.0493  0.3847
    1W        W35281  12.679  18.654   0.334 -0.0792  0.3545 -0.0711
    1W        W35282  16.317  11.927   7.232 -0.1700 -0.1818 -0.3180
    1W        W35283   8.684  19.437   8.543 -0.3065 -0.0148  0.0095
    1W        W35284  25.181   2.341   2.113 -0.0731  0.1776 -0.1995
    1W        W35285   0.027  16.661   2.210  0.2768 -0.0326  0.3122
    1W        W35286  23.034   1.594   9.187 -0.0077  0.0778  0.3800
    1W        W35287   0.299   3.734   0.630  0.4925  0.0789  0.2387
    1W        W35288  11.843   9.135   7.639  0.2352 -0.1719 -0.1289
    1W        W35289  25.033   6.578   7.452  0.1319 -0.0825  0.1648
    1W        W35290  14.212   2.969   1.796  0.0743  0.3049 -0.0132
    1W        W35291   4.013   0.420   7.587 -0.0842 -0.0299  0.0825
    1W        W35292  20.989  13.397   8.649  0.0339  0.2185 -0.1999
    1W        W35293   8.774   7.122   8.315  0.1576 -0.0835 -0.1004
    1W        W35294  13.176  21.664   0.093 -0.0211  0.0246 -0.0012
    1W        W35295   7.610   9.849   0.659  0.0202 -0.3730  0.0290
    1W        W35296  29.501  14.162   8.038 -0.0944 -0.0596  0.0826
    1W        W35297   5.988  23.404   7.999  0.0192  0.2598 -0.2424
    1W        W35298  11.019  24.492   1.288  0.1741  0.0398 -0.0185
    1W        W35299   9.337  16.950   5.988  0.1885 -0.1881  0.0764
    1W        W35300  18.363  13.309   0.739  0.1630 -0.5463 -0.0510
    1W        W35301   6.821  25.837   7.318  0.1718 -0.0027  0.1680
    1W        W35302   9.406   0.849   8.875 -0.1163  0.0821 -0.0973
    1W        W35303  28.443  20.370   6.666  0.0553  0.1000 -0.0254
    1W        W35304  11.426  11.472   2.131  0.1238  0.3334 -0.1257
    1W        W35305   1.392  28.701   8.234  0.0534  0.1437 -0.5149
    1W        W35306  17.562   3.935   2.347 -0.0846  0.0433  0.0136
    1W        W35307  20.559   9.032   3.002 -0.0056  0.0262 -0.0554
    1W        W35308   0.472  27.131   7.301 -0.2925  0.1959 -0.3937
    1W        W35309   4.541  21.079   1.723 -0.2411  0.1205  0.4063
    1W        W35310  12.397   5.773   8.874  0.0498 -0.1550 -0.2598
    1W        W35311  26.061   5.741   7.180  0.1056 -0.2474  0.2020
    1W        W35312   7.400   7.444   1.694  0.2528 -0.1703  0.1118
    1W        W35313  18.345  13.346   8.614 -0.1808 -0.2785  0.1654
    1W        W35314   3.775   9.634   7.349 -0.3808 -0.3019 -0.0738
    1W        W35315  27.391  14.133   0.729 -0.2956  0.0096 -0.0172
    1W        W35316  13.890   7.618   7.891  0.4239 -0.1079  0.1394
    1W        W35317  25.188  24.791   6.569  0.1074 -0.1881 -0.3267
    1W        W35318   1.400   3.123   3.066 -0.0650  0.2945 -0.1515
    1W        W35319  13.396   9.678   2.281 -0.1500  0.0814  0.0730
    1W        W35320   6.190  24.192   1.531  0.1571 -0.2390 -0.2594
    1W        W35321  15.388  23.305   5.192 -0.0012  0.2684  0.0646
    1W        W35322   9.501  11.161   2.158 -0.0732 -0.1386 -0.0557
    1W        W35323  27.382  13.481   1.410  0.0058 -0.0872  0.2180
    1W        W35324   3.164   8.382   8.285 -0.1636 -0.0699  0.2830
    1W        W35325  22.650  12.068   1.954 -0.0048  0.0906  0.3386
    1W        W35326  27.900  27.672   7.328  0.0595 -0.0513 -0.3856
    1W        W35327   6.114   4.489   7.468  0.1297  0.3425 -0.1113
    1W        W35328   9.450   0.274   8.075 -0.0142  0.0657  0.0358
    1W        W35329  19.575  28.892   7.905  0.2025  0.2121 -0.0394
    1W        W35330  23.184  25.951   2.123  0.0780 -0.0968 -0.2516
    1W        W35331   0.868   5.600   2.758 -0.0537  0.0922  0.0906
    1W        W35332  11.799  27.028   8.855  0.0667  0.0553 -0.0675
    1W        W35333  12.560  12.994   7.514 -0.2015  0.0942 -0.1222
    1W        W35334   1.895  20.643   8.791 -0.0985 -0.0150  0.0568
    1W        W35335  29.548  28.076   7.411  0.1930 -0.2424 -0.3436
    1W        W35336   3.816  27.894   1.834  0.0142 -0.0984  0.0206
    1W        W35337  26.218   9.985   1.555  0.2773 -0.0890 -0.1466
    1W        W35338   2.718  11.299   7.351 -0.4123  0.1368 -0.0434
    1W        W35339   6.943  26.906   2.024  0.1356 -0.0796  0.0750
    1W        W35340  14.351  11.443   1.788  0.1398 -0.2563  0.1837
    1W        W35341  16.114   8.310   8.090 -0.0599 -0.0108 -0.1089
    1W        W35342   6.109  15.421   1.801  0.0617  0.1592  0.0268
    1W        W35343   1.304  11.317   0.855  0.2215 -0.0579 -0.1435
    1W        W35344   4.419  28.993   1.648  0.3478  0.0248 -0.0074
    1W        W35345   1.597  18.519   6.722 -0.0396  0.2321 -0.0248
    1W        W35346  19.597  23.126   7.792  0.0613  0.1472  0.2973
    1W        W35347  28.587  27.555   9.505 -0.0100 -0.4121  0.2120
    1W        W35348  24.678  17.732   7.668 -0.0006  0.1277  0.2185
    1W        W35349  22.227  12.075   0.064  0.0350 -0.1414  0.1804
    1W        W35350  15.687  12.871   7.150 -0.0509 -0.0358 -0.1628
    1W        W35351   5.378   5.214   0.896  0.0937 -0.0480  0.0649
    1W        W35352   2.851  15.950   0.537 -0.1615  0.0538 -0.1910
    1W        W35353   9.138   7.819   1.065 -0.0540 -0.1283  0.1055
    1W        W35354  24.744   2.484   8.542  0.0825 -0.2193  0.0603
    1W        W35355  27.648  21.616   1.631  0.0489  0.0554 -0.1613
    1W        W35356  20.714  28.855   9.346  0.1594  0.0705  0.0291
    1W        W35357  29.191   3.379   7.246  0.3330 -0.2021 -0.1287
    1W        W35358   1.994   2.555   1.965  0.2360 -0.1622  0.1100
    1W        W35359  13.512  15.441   7.371  0.0899  0.0204 -0.2317
    1W        W35360   6.476  20.501   6.259 -0.4355 -0.0477 -0.0264
    1W        W35361   5.478   1.435   7.321 -0.0683  0.0606  0.0979
    1W        W35362   9.627   4.861   7.883 -0.2536  0.1995  0.2443
    1W        W35363  20.173   0.997   3.198  0.1137 -0.2175 -0.0033
    1W        W35364   5.209  19.101   0.629  0.0782  0.2977  0.0940
    1W        W35365  27.583   3.754   7.789 -0.3144 -0.3461 -0.0261
    1W        W35366  28.508  24.154   2.013  0.0985 -0.2156 -0.1328
    1W        W35367  16.654  14.208   6.944  0.1372  0.2064 -0.0584
    1W        W35368  21.938  27.318   2.539 -0.0399 -0.0078 -0.3177
    1W        W35369  19.924  19.767   6.425 -0.0040  0.2162  0.0819
    1W        W35370  22.180   0.367   8.524  0.1643 -0.0138  0.2421
    1W        W35371  10.430  21.587   6.045  0.1663  0.0716  0.1818
    1W        W35372  13.933  14.851   1.647 -0.2109 -0.0912  0.3456
    1W        W35373  28.791  10.344   0.830  0.1560  0.0293 -0.2967
    1W        W35374   1.820  24.067   7.878  0.2660 -0.1082 -0.0231
    1W        W35375  27.670  10.271   8.987 -0.1498  0.2174  0.0686
    1W        W35376  14.963   0.305   9.475 -0.1235  0.0215  0.0965
    1W        W35377  10.318  18.527   6.459  0.1673  0.0002 -0.0223
    1W        W35378   6.202  21.124   7.297  0.0788  0.0208  0.3310
    1W        W35379   5.212   3.014   8.238 -0.0033  0.1718  0.0533
    1W        W35380  22.373  29.207   0.031  0.1126  0.0745 -0.0641
    1W        W35381  14.982   0.530   3.025  0.2573 -0.1834 -0.2055
    1W        W35382  25.399  22.884   1.100  0.0376 -0.0956 -0.1095
    1W        W35383   0.283  10.787   1.362  0.0967  0.0098 -0.2048
    1W        W35384  27.326   5.703   1.642  0.1853  0.1776 -0.0172
    1W        W35385  20.308   1.850   1.024 -0.2135  0.0192  0.0394
    1W        W35386   3.929  23.951   8.117  0.2598  0.0337 -0.0221
    1W        W35387   6.247   0.502   2.910  0.1811 -0.2118 -0.0021
    1W        W35388   5.849  10.180   1.967 -0.0198 -0.1200  0.2002
    1W        W35389  15.792  11.965   1.276 -0.4551 -0.0327  0.1442
    1W        W35390   7.746   2.707   0.983  0.0154 -0.2716 -0.0878
    1W        W35391  15.633   1.677   8.590  0.2127 -0.1848  0.3755
    1W        W35392   3.329  11.050   0.887  0.1918 -0.2236  0.0210
    1W        W35393  29.357   8.453   8.349  0.0672 -0.3292 -0.3263
    1W        W35394  22.913  16.232   0.908  0.0063  0.0027 -0.0572
    1W        W35395   4.113  27.842   8.315  0.1271 -0.0842  0.0210
    1W        W35396   7.419  20.368   7.251 -0.0657 -0.0577  0.1289
    1W        W35397   3.298  25.586   1.620  0.0406  0.0551 -0.0390
    1W        W35398  13.400  19.139   8.950  0.0436  0.0920  0.0734
    1W        W35399  29.242  21.515   1.030 -0.0954 -0.0439 -0.5507
    1W        W35400  17.605  13.429   1.403  0.0022  0.1298 -0.1940
    1W        W35401  12.750   3.973   9.256 -0.2072  0.2033  0.1216
    1W        W35402  12.352   6.697   9.449 -0.1275 -0.1199 -0.3058
    1W        W35403  27.479   9.703   0.625 -0.2535 -0.0223  0.3732
    1W        W35404  27.878   5.175   9.063  0.1220  0.1896  0.0538
    1W        W35405  25.212  15.524   9.028  0.3077 -0.3469 -0.3680
    1W        W35406  17.681   9.268   2.536 -0.1087 -0.0307 -0.1721
    1W        W35407  15.090  14.974   0.721  0.2924 -0.1967 -0.1441
    1W        W35408  19.430   6.010   3.230  0.0842  0.2933  0.1713
    1W        W35409  27.688   3.656   8.305 -0.1694  0.2109  0.1269
    1W        W35410  24.649   8.544   7.836  0.2512  0.0685 -0.2974
    1W        W35411  11.403   4.594   8.232 -0.2428 -0.0133 -0.0621
    1W        W35412   0.910   6.171   8.106 -0.1114 -0.2291 -0.0419
    1W        W35413   4.176  16.122   0.198  0.0913 -0.1364 -0.0425
    1W        W35414  16.623  21.611   0.502 -0.0388  0.0733 -0.1426
    1W        W35415  17.263  25.954   9.044  0.0873  0.0042  0.1393
    1W        W35416  12.758  25.196   0.618 -0.0043 -0.2518  0.0524
    1W        W35417  14.451  29.829   2.467 -0.0915  0.0278  0.0953
    1W        W35418  13.169  21.272   6.031  0.2276 -0.1529  0.2529
    1W        W35419  11.571  25.979   0.518  0.0464  0.2911  0.2873
    1W        W35420  14.496   9.898   9.111 -0.2559 -0.2106 -0.1766
    1W        W35421   3.138  23.830   5.793  0.0207 -0.1855  0.1987
    1W        W35422   6.323   0.378   2.436  0.0860 -0.0264 -0.1348
    1W        W35423  25.055  29.360   3.037 -0.0079 -0.0233  0.4885
    1W        W35424  19.350   5.293   8.213  0.1188  0.2074 -0.1384
    1W        W35425  26.846  10.741   0.491 -0.3003  0.1321  0.2053
    1W        W35426  10.722  18.523   1.494 -0.0668 -0.0317 -0.1040
    1W        W35427   9.087   8.408   9.274  0.2755  0.2334  0.1530
    1W        W35428  18.997  13.720   9.104 -0.2789  0.0381 -0.1055
    1W        W35429   5.384  17.642   6.824  0.3178 -0.1150  0.1662
    1W        W35430  26.629   7.392   2.905  0.1967 -0.0935 -0.2334
    1W        W35431  21.729   9.259   9.352 -0.4827  0.1064 -0.1384
    1W        W35432   3.328  18.251   7.918  0.1358  0.2518  0.0139
    1W        W35433  21.394  14.852   7.378  0.3476 -0.0310  0.2481
    1W        W35434  18.225  28.840   7.703  0.0788 -0.0360  0.0552
    1W        W35435  26.671  22.627   2.154  0.0464 -0.1466 -0.0336
    1W        W35436   3.974  17.777   1.508  0.0507 -0.0441 -0.0757
    1W        W35437  12.746  16.707   1.112 -0.1854  0.0514 -0.2754
    1W        W35438  13.731  17.969   0.029  0.0625  0.3331  0.1165
    1W        W35439   3.124   0.352   0.941 -0.3069  0.4056 -0.1935
    1W        W35440  27.497   7.239   2.458 -0.2215  0.0986 -0.1556
    1W        W35441  25.085   4.704   1.433  0.1560  0.0052  0.0331
    1W        W35442  19.020   6.505   0.471  0.1748  0.1394  0.0172
    1W        W35443   3.918  19.464   8.491  0.1967 -0.1519 -0.1422
    1W        W35444   6.086   8.467   6.969 -0.1158 -0.0164 -0.0165
    1W        W35445  24.291  15.777   9.261  0.1434  0.2010  0.2958
    1W        W35446  14.522  17.116   0.748 -0.0441  0.0002  0.0099
    1W        W35447   2.765  27.676   9.089  0.4837 -0.2746  0.0713
    1W        W35448  10.798  13.952   8.512  0.1933  0.3029 -0.1312
    1W        W35449  20.595  22.750   0.513  0.0978 -0.2406  0.2521
    1W        W35450  18.822   4.113   9.292  0.1276  0.0862  0.2225
    1W        W35451   1.399  16.473   0.111 -0.0167 -0.1591 -0.2420
    1W        W35452   4.845  19.339   3.250 -0.0142 -0.0343  0.0833
    1W        W35453  16.664   7.841   8.599 -0.1131  0.1547  0.1614
    1W        W35454  20.375   4.113   1.845  0.1118 -0.2617 -0.0465
    1W        W35455  14.267   5.050   3.712  0.0497  0.4262 -0.1708
    1W        W35456  21.897   4.083   2.086 -0.0776 -0.2193 -0.0016
    1W        W35457   6.825  11.445   9.510  0.2107 -0.2047  0.0094
    1W        W35458   3.385  12.012   1.601  0.2061 -0.2723 -0.6612
    1W        W35459   0.574   2.331   6.272  0.2377 -0.1803  0.2806
    1W        W35460  20.599  26.225   6.737  0.0199  0.1560  0.0125
    1W        W35461   3.671  10.810   9.467 -0.0288 -0.0596 -0.2306
    1W        W35462   5.016   9.350   2.241  0.0660  0.0069 -0.0729
    1W        W35463  19.326  22.822   1.282  0.2664 -0.1976  0.1963
    1W        W35464   8.978  19.209   8.139  0.3334 -0.0881  0.2189
    1W        W35465   3.080  15.900   8.427  0.2166 -0.0475 -0.0511
    1W        W35466  22.673  12.758   9.074 -0.0761  0.2862 -0.1800
    1W        W35467  24.620  18.931   7.702 -0.1528 -0.0140 -0.2796
    1W        W35468   2.007  22.037   7.163 -0.0540  0.0479 -0.2428
    1W        W35469   3.180  12.151   7.024 -0.1024 -0.0904  0.0270
    1W        W35470  11.928   5.862   3.023  0.1680 -0.1556 -0.1500
    1W        W35471  20.830  20.897   6.354 -0.2185  0.1505 -0.0087
    1W        W35472  18.905  22.481   0.479 -0.0799 -0.1546 -0.0031
    1W        W35473  28.198  10.338   9.097  0.0665  0.1055  0.4554
    1W        W35474  14.818  16.799   2.549  0.3480 -0.3307  0.0075
    1W        W35475  17.985  27.453   7.461 -0.1989  0.1732  0.1515
    1W        W35476   4.677  21.860   7.275 -0.3332  0.1122  0.0432
    1W        W35477  12.231   3.642   1.004 -0.0237 -0.2321 -0.3276
    1W        W35478  27.307  11.790   7.528 -0.0675  0.0098  0.0908
    1W        W35479  20.448  21.344   8.077 -0.1674  0.0808 -0.0407
    1W        W35480  20.620  10.217   2.089 -0.0858  0.1991 -0.0236
    1W        W35481   0.106  16.802   0.252  0.4115  0.2498  0.0421
    1W        W35482  23.517  28.912   7.482  0.2800  0.0552 -0.2943
    1W        W35483  18.195  22.049   7.519  0.2470 -0.0080  0.0132
    1W        W35484   0.251  24.873   2.239 -0.1810 -0.0266  0.3290
    1W        W35485   7.599  15.380   6.833  0.0528 -0.0269 -0.1236
    1W        W35486   8.452  18.551   6.804  0.0834 -0.1966 -0.1474
    1W        W35487  14.091  22.508   6.777  0.0181  0.0108 -0.2135
    1W        W35488  20.460  19.503   9.437  0.0248  0.0390  0.0038
    1W        W35489   7.792  12.574   1.699 -0.2707  0.1557 -0.0545
    1W        W35490  13.757  22.687   8.078 -0.4729 -0.1167  0.1540
    1W        W35491   7.420  18.909   8.342 -0.2956  0.0691  0.3029
    1W        W35492  26.146  13.855   0.928  0.0096  0.1251 -0.1305
    1W        W35493   8.335   7.905   6.207 -0.1445 -0.1227  0.0574
    1W        W35494   3.041  26.303   9.305  0.1375 -0.1043 -0.1464
    1W        W35495   8.248  22.986   9.084  0.0933 -0.3096  0.1647
    1W        W35496  15.114  29.665   2.313 -0.1290 -0.4658  0.0321
    1W        W35497  18.178  17.351   7.818  0.2581 -0.0186  0.3492
    1W        W35498  16.883  27.879   1.406  0.0536 -0.2154 -0.1130
    1W        W35499   9.107  14.458   8.920  0.3251  0.0271 -0.0857
    1W        W35500   2.197  26.604   8.586  0.0196  0.1413  0.1247
    1W        W35501  19.552  29.565   1.146  0.0479 -0.0965  0.1177
    1W        W35502   9.343  22.873   5.307 -0.2181  0.0681 -0.2226
    1W        W35503  23.607  13.931   7.281 -0.1471  0.2361 -0.2159
    1W        W35504  26.991  28.977   1.126 -0.0542  0.1314 -0.1132
    1W        W35505  27.965   4.355   6.928  0.2071 -0.1246  0.0784
    1W        W35506  22.893  27.359   2.257  0.0765 -0.0841 -0.0353
    1W        W35507   2.507  24.222   8.062 -0.0239  0.2289  0.2150
    1W        W35508  14.774   5.632   3.350  0.1055  0.0335  0.0239
    1W        W35509  15.758  25.818   6.371 -0.3406  0.0554  0.2106
    1W        W35510  13.628  14.541   0.956 -0.1924 -0.0800 -0.2008
    1W        W35511   4.504   0.316   1.493  0.2821  0.1090  0.1354
    1W        W35512  16.826  14.608   7.344  0.2161 -0.0601  0.0047
    1W        W35513  26.900   0.468   0.124 -0.2644  0.1535  0.0747
    1W        W35514  13.325  17.140   1.666 -0.1209  0.0798  0.2788
    1W        W35515  19.063   6.181   2.914 -0.1791  0.1719 -0.2230
    1W        W35516   5.031  10.926   7.628 -0.4158  0.1055 -0.0223
    1W        W35517   5.873  19.665   2.571  0.0480 -0.0029  0.1132
    1W        W35518   5.614  22.550   1.824 -0.0783 -0.0881 -0.0173
    1W        W35519   1.563  16.122   9.295 -0.3490 -0.2082 -0.1901
    1W        W35520  16.406  25.974   1.266 -0.0320 -0.2825  0.1790
    1W        W35521  25.089  12.087   1.634  0.2568 -0.0210  0.2447
    1W        W35522  23.653  27.156   8.552  0.3571  0.1441  0.0514
    1W        W35523  22.944  19.612   0.245  0.0977 -0.0238  0.1331
    1W        W35524  20.164   1.498   1.339 -0.3375  0.0590 -0.0876
    1W        W35525  28.347   0.125   2.311  0.0715  0.2764 -0.2365
    1W        W35526  14.735  24.477   7.484 -0.1193  0.1466 -0.0459
    1W        W35527  13.397  10.215   2.404  0.1780  0.2065 -0.0982
    1W        W35528  17.885  28.440   9.430  0.0410 -0.2296  0.0030
    1W        W35529  17.349  27.360   7.221  0.0288  0.1239 -0.1746
    1W        W35530   1.804  29.322   1.469 -0.1712  0.1391  0.0546
    1W        W35531   1.487   7.271   0.739 -0.1185  0.1784 -0.1346
    1W        W35532  15.804  27.678   2.368 -0.0004  0.1414 -0.1222
    1W        W35533   2.507  11.976   6.312  0.1894 -0.1542 -0.0871
    1W        W35534  18.468   3.944   8.957  0.1307 -0.0249 -0.0540
    1W        W35535  12.204   3.453   2.115  0.1373  0.1881  0.0132
    1W        W35536  29.548  17.890   1.518 -0.2344 -0.1054  0.3297
    1W        W35537  26.831  20.237   8.401  0.0453  0.1853  0.2967
    1W        W35538   6.502  28.341   6.858 -0.0652 -0.0763 -0.1467
    1W        W35539  14.662  29.197   7.914  0.1255 -0.0267  0.0186
    1W        W35540  28.532  23.329   1.533 -0.1830 -0.3051  0.0128
    1W        W35541  12.733  10.885   1.161 -0.0340  0.1300  0.2615
    1W        W35542   7.979  21.742   2.178 -0.0795 -0.1844  0.0576
    1W        W35543   0.819  23.626   1.099 -0.1482 -0.0917 -0.3342
    1W        W35544  10.268  20.216   1.341 -0.0657 -0.0200 -0.1096
    1W        W35545   9.033   8.681   8.352 -0.3319  0.0741  0.1864
    1W        W35546  13.762  23.688   7.917  0.2079 -0.0966  0.0636
    1W        W35547   4.935   2.905   7.741 -0.1934 -0.1589 -0.0128
    1W        W35548  26.676   7.786   8.475  0.0852  0.0118  0.1208
    1W        W35549  22.303  16.496   8.001  0.3200  0.0449 -0.0902
    1W        W35550   3.092   3.581   8.570  0.0312 -0.3810 -0.4110
    1W        W35551   4.625  16.797   7.354 -0.0840  0.0336  0.2486
    1W        W35552  26.545  10.571   0.045  0.1571 -0.0094  0.0033
    1W        W35553  14.252   1.997   0.120  0.0965  0.2839 -0.2913
    1W        W35554  27.578  29.001   7.391  0.1963  0.1230 -0.1011
    1W        W35555  14.625  21.829   0.538  0.0482 -0.0591 -0.4138
    1W        W35556  24.140  23.313   8.533  0.0294 -0.2239  0.1134
    1W        W35557  19.466   5.449   3.332  0.2012 -0.1216 -0.1385
    1W        W35558  16.588  16.453   8.393  0.1011 -0.0016  0.1619
    1W        W35559  29.356   8.522   7.828  0.2551  0.1040 -0.0291
    1W        W35560   6.920  24.457   6.337 -0.0152  0.0103 -0.0480
    1W        W35561   9.923   1.755   1.102 -0.0800 -0.0466 -0.2294
    1W        W35562  16.584  27.346   7.954  0.1457  0.1433 -0.2360
    1W        W35563  22.518  26.721   7.051  0.0497 -0.0949 -0.1431
    1W        W35564   0.839  17.290   0.773 -0.0620 -0.1403 -0.2238
    1W        W35565  10.578   5.443   1.304  0.0424 -0.4522  0.1470
    1W        W35566   7.029  29.099   7.775 -0.0200  0.0885 -0.0304
    1W        W35567  29.023   4.500   7.463  0.1707 -0.0182 -0.0764
    1W        W35568  26.277   0.894   1.820  0.2343  0.1413  0.2290
    1W        W35569   9.742  19.126   7.546  0.0541  0.0890 -0.2354
    1W        W35570  18.320  10.949   0.300  0.0168 -0.0709 -0.0391
    1W        W35571  19.684  11.786   2.076  0.0701  0.3039  0.0723
    1W        W35572  25.507  23.076   2.457  0.2594  0.0649  0.0389
    1W        W35573  16.140   1.911   0.687 -0.4466  0.0861 -0.2034
    1W        W35574   7.359  16.614   7.453 -0.3897  0.2598  0.0769
    1W        W35575  12.454   8.736   7.058 -0.3781 -0.3685 -0.1038
    1W        W35576  15.459  15.029   7.190 -0.1601 -0.0654 -0.1369
    1W        W35577  29.005  18.735   7.778  0.1978 -0.0080  0.3109
    1W        W35578   1.856   9.058   8.824  0.2383 -0.1402  0.0137
    1W        W35579  22.316   3.465   3.299  0.2836 -0.0984 -0.0661
    1W        W35580  27.155  22.453   6.841  0.2500  0.0814  0.0199
    1W        W35581  29.380  21.636   7.122  0.0294  0.0590  0.4940
    1W        W35582  13.761   2.826   1.581 -0.0276 -0.1472 -0.1021
    1W        W35583  18.122  23.823   6.022  0.2085  0.2668  0.0400
    1W        W35584  16.584  21.215   7.637 -0.1191 -0.0835 -0.2870
    1W        W35585  10.411   7.308   8.389  0.0970  0.0679  0.0369
    1W        W35586  20.832  26.963   6.183  0.1111 -0.0456  0.0122
    1W        W35587  10.058  24.584   8.473 -0.0741  0.0473 -0.1155
    1W        W35588  22.221  27.225   0.313 -0.0169  0.2165 -0.0846
    1W        W35589  12.127   2.025   3.962 -0.1931 -0.3203 -0.1277
    1W        W35590   6.299   9.181   7.948  0.1201 -0.0273  0.0206
    1W        W35591   4.194  16.551   1.838  0.0680  0.0247 -0.2069
    1W        W35592  29.622  19.305   2.903 -0.0425  0.1184 -0.0636
    1W        W35593  18.864  15.709   7.545 -0.3812 -0.0314  0.1476
    1W        W35594  28.932   8.792   7.660  0.0190  0.0512 -0.0200
    1W        W35595   4.182  18.626   1.108 -0.2391 -0.0568  0.1387
    1W        W35596   2.965  24.894   7.204  0.2063  0.1198  0.1828
    1W        W35597  28.057  25.971   1.905 -0.5419 -0.5961 -0.1080
    1W        W35598  17.515  23.162   6.310  0.2224  0.0866 -0.3832
    1W        W35599  14.297  25.940   5.934 -0.2993 -0.0169 -0.1162
    1W        W35600  22.088  17.986   6.031  0.2224  0.2468 -0.1110
    1W        W35601   2.547  28.055   8.287  0.2689 -0.3225 -0.1448
    1W        W35602  24.297  10.656   9.417  0.0505 -0.2568  0.0600
    1W        W35603   9.329   3.456   1.612 -0.1540 -0.3116 -0.1200
    1W        W35604  23.659  15.540   1.324 -0.2107  0.0068  0.0398
    1W        W35605  16.230  26.844   8.717  0.0817  0.0400  0.2491
    1W        W35606  20.316   4.617   2.643 -0.1701  0.0156 -0.0067
    1W        W35607   7.814  25.242   7.964 -0.3648  0.1340  0.0253
    1W        W35608  21.358   2.998   8.269  0.2290  0.0450 -0.2926
    1W        W35609   0.778  28.816   7.935  0.1304 -0.0787 -0.2399
    1W        W35610  11.356  10.984   1.039  0.0262  0.2250  0.2039
    1W        W35611   7.163  24.569   1.513  0.1006 -0.1766  0.0506
    1W        W35612  25.793   8.250   2.329  0.0698  0.0759  0.1928
    1W        W35613  14.145  22.825   0.146  0.1188  0.2180  0.1627
    1W        W35614  23.838  18.515   1.011  0.2102  0.0321 -0.0090
    1W        W35615   0.227  15.619   6.843  0.1369 -0.2233  0.4259
    1W        W35616   7.160  28.133   1.563  0.0857 -0.4415 -0.0843
    1W        W35617   4.146  24.853   1.600  0.0269 -0.0005  0.1680
    1W        W35618  11.683   1.128   0.078 -0.0304  0.1228  0.0248
    1W        W35619  24.544  21.184   6.478 -0.1271 -0.0669 -0.1083
    1W        W35620  14.198   5.940   8.767 -0.0798 -0.0561 -0.1122
    1W        W35621  26.129  26.277   1.009 -0.0450  0.0507  0.1566
    1W        W35622   3.026   8.196   0.753  0.1755  0.0627 -0.1851
    1W        W35623   9.149   6.320   2.216 -0.0921 -0.1276  0.2159
    1W        W35624  20.823   4.569   8.080  0.5762  0.0717  0.1325
    1W        W35625   3.149  28.415   0.092  0.0978 -0.0425  0.0950
    1W        W35626  24.095   8.755   8.504 -0.0819 -0.1463 -0.0968
    1W        W35627   2.410  22.592   7.917 -0.2598  0.0440  0.1127
    1W        W35628  25.670   8.958   0.297 -0.1375 -0.0745  0.2624
    1W        W35629   0.248   0.450   9.054 -0.0860 -0.2665  0.0275
    1W        W35630  22.036   7.648   3.412 -0.2559 -0.0567  0.0248
    1W        W35631  13.971   6.943   0.880 -0.1970  0.1324  0.1022
    1W        W35632  11.646   3.704   3.628 -0.2064 -0.0518  0.0733
    1W        W35633  16.637  16.564   1.020  0.0868 -0.0066  0.2269
    1W        W35634  12.627  29.699   9.042  0.4532  0.0810 -0.2824
    1W        W35635   8.187  18.872   7.700 -0.1221  0.1028 -0.2994
    1W        W35636  23.559   1.100   0.848 -0.1596  0.1581  0.2394
    1W        W35637   4.508  10.785   0.414 -0.3790  0.0940 -0.0483
    1W        W35638   7.414   6.014   2.804 -0.1666  0.1413 -0.2417
    1W        W35639  12.296  15.194   6.636  0.2902 -0.1874  0.0565
    1W        W35640  28.512  20.359   0.168  0.4680  0.1357 -0.0043
    1W        W35641   8.713  25.319   1.681 -0.1584 -0.2940  0.1502
    1W        W35642  14.417  27.672   6.574  0.1882 -0.0954 -0.1701
    1W        W35643  18.819  12.080   8.173  0.0283  0.0570  0.0541
    1W        W35644  22.583  25.392   6.168  0.0804  0.0288  0.2817
    1W        W35645  13.764  24.905   8.783  0.2915  0.2211 -0.1043
    1W        W35646  26.614  27.464   1.916  0.1106 -0.3488  0.4096
    1W        W35647   6.363   9.117   1.151  0.2183  0.1904  0.0989
    1W        W35648  24.033  14.824   1.238  0.0592  0.0749 -0.0288
    1W        W35649  10.407  27.896   2.400  0.2375 -0.0108 -0.1122
    1W        W35650  26.113  14.338   7.105 -0.0703  0.0362  0.2635
    1W        W35651  17.471   9.208   1.639  0.3240 -0.1219 -0.1499
    1W        W35652  25.852  28.481   6.954 -0.3025 -0.0731 -0.3348
    1W        W35653  24.269  16.202   2.346  0.2685 -0.1247  0.0646
    1W        W35654   5.725  22.247   1.352  0.0636  0.0905 -0.3077
    1W        W35655   5.675   8.249   8.771 -0.0353  0.3049 -0.2037
    1W        W35656   9.081  22.281   6.770  0.1694  0.0959 -0.1181
    1W        W35657  10.524  25.131   1.580  0.3056  0.2264 -0.0204
    1W        W35658  19.727  28.881   0.592  0.2877 -0.1752 -0.0718
    1W        W35659   4.248   2.456   0.940  0.2148 -0.1156 -0.2001
    1W        W35660  16.746  25.278   2.368  0.3232 -0.2811 -0.1638
    1W        W35661  23.930  19.159   6.865 -0.2261  0.2698  0.1638
    1W        W35662  14.198   9.068   8.159  0.4233  0.4184 -0.2740
    1W        W35663  11.311  24.062   2.011 -0.0285 -0.1041 -0.0495
    1W        W35664  17.790   5.927   2.961 -0.0839  0.1974  0.2167
    1W        W35665  23.626  22.707   2.708  0.1754 -0.0790  0.2005
    1W        W35666  22.642  28.605   0.152 -0.0329 -0.5179  0.0451
    1W        W35667   0.327   9.460   7.106  0.1076  0.0454 -0.3899
    1W        W35668   4.250  11.009   7.949 -0.0608 -0.2228 -0.3407
    1W        W35669   8.149  22.993   6.078  0.1589 -0.2572  0.0442
    1W        W35670  21.243   8.960   0.534  0.0021 -0.1576  0.0243
    1W        W35671  29.251   7.691   1.716 -0.0851 -0.2285  0.2302
    1W        W35672  10.130  18.827   1.118  0.0845  0.1712  0.1120
    1W        W35673  25.839  16.376   9.082 -0.3187  0.0221  0.1467
    1W        W35674  19.336   2.627   2.692  0.1834  0.1517  0.0261
    1W        W35675   9.474   3.977   0.414 -0.0948 -0.0508  0.0585
    1W        W35676  26.250  24.683   8.629  0.0710  0.0757  0.2772
    1W        W35677  10.003   0.659   1.524 -0.0077  0.1458  0.0582
    1W        W35678   1.929  12.227   9.368  0.1856  0.1252  0.1670
    1W        W35679  20.848   8.585   8.684 -0.2960  0.2861  0.2545
    1W        W35680  24.701  13.935   8.374  0.2518  0.3068 -0.0985
    1W        W35681  26.470   1.357   8.135  0.0732  0.1024 -0.3323
    1W        W35682  20.494  18.383   1.753  0.0233  0.1508 -0.0224
    1W        W35683  24.385  28.938   1.807 -0.2567 -0.3124  0.0225
    1W        W35684  15.989  25.313   0.717 -0.0005  0.0232  0.0251
    1W        W35685  12.915  23.570   7.860 -0.0003  0.0143 -0.2471
    1W        W35686  16.403  29.233   2.315 -0.3037 -0.2191  0.3427
    1W        W35687   1.827  27.904   6.451 -0.0045  0.0210 -0.3437
    1W        W35688  12.487  26.231   2.836 -0.0437 -0.2580 -0.0467
    1W        W35689  14.584   8.982   2.557 -0.2355 -0.1294 -0.0019
    1W        W35690  20.287  23.840   1.120  0.1458  0.0336 -0.2225
    1W        W35691   2.504  10.653   7.212 -0.0941 -0.1554 -0.2588
    1W        W35692   3.937  23.291   1.063  0.0766 -0.0069  0.2756
    1W        W35693   9.930  27.872   2.230  0.1597  0.3318 -0.0841
    1W        W35694  27.827  27.988   0.061  0.3694 -0.1999 -0.0032
    1W        W35695  29.792  22.130   8.980  0.0714 -0.0156 -0.0569
    1W        W35696   4.946  13.638   9.182  0.2699  0.0237  0.0701
    1W        W35697  14.325  25.829   1.953 -0.1566 -0.2927  0.4054
    1W        W35698  20.377  15.542   1.240  0.0851  0.0278 -0.0584
    1W        W35699   6.973  21.822   5.883 -0.0855  0.2343  0.1576
    1W        W35700  18.579   2.376   8.656  0.0663  0.1281  0.0720
    1W        W35701   8.134  23.978   0.337 -0.0273  0.0144 -0.1426
    1W        W35702  10.130   1.207   1.611 -0.0937 -0.1956  0.3404
    1W        W35703  22.976  29.038   2.305  0.1573 -0.1679  0.0986
    1W        W35704  22.704  12.260   7.017  0.2474 -0.2149  0.0688
    1W        W35705  26.774  19.295   2.079 -0.1546 -0.1120 -0.3807
    1W        W35706   3.517  26.543   5.522  0.1930  0.2127  0.0889
    1W        W35707   4.383  19.402   7.537 -0.1532  0.1876  0.1110
    1W        W35708   7.547  11.413   8.710  0.1657  0.1900  0.0930
    1W        W35709  11.271  27.680   8.265 -0.2180  0.0328  0.0066
    1W        W35710  28.353   3.563   7.642  0.0188 -0.1508 -0.1433
    1W        W35711   9.178   3.702   1.216  0.2844  0.1430 -0.0706
    1W        W35712   5.533   8.627   2.743  0.4453  0.0938 -0.0406
    1W        W35713   4.024  27.133   1.793  0.1151 -0.2781 -0.0634
    1W        W35714  13.394  26.879   6.768  0.2025 -0.1894  0.1274
    1W        W35715  24.597  24.240   6.988  0.3085  0.1969  0.5075
    1W        W35716  24.691  14.343   8.708  0.4380 -0.2883 -0.1313
    1W        W35717  24.627  29.724   7.797  0.1172 -0.2126 -0.0325
    1W        W35718  29.071   0.951   0.542  0.1995 -0.1513  0.0211
    1W        W35719  13.400  19.492   8.187  0.0608 -0.2786  0.2114
    1W        W35720  19.138   5.460   0.722  0.2688 -0.0598  0.0358
    1W        W35721   9.534  25.520   2.141 -0.0755 -0.1123 -0.2606
    1W        W35722  10.812  13.781   2.848  0.1898  0.2204  0.0099
    1W        W35723  13.917   9.347   9.434 -0.0828 -0.1324 -0.2251
    1W        W35724  20.721  16.414   6.970 -0.2985 -0.1496 -0.1834
    1W        W35725  29.200  21.634   7.600  0.0388  0.0647  0.1049
    1W        W35726  15.711  12.714   8.192 -0.0788 -0.4478  0.0286
    1W        W35727  25.445  28.568   9.190 -0.2594  0.1654  0.2287
    1W        W35728   4.455  24.402   9.071 -0.0224 -0.0273 -0.2151
    1W        W35729  21.354   7.392   9.371  0.0503 -0.0821 -0.1562
    1W        W35730  27.243   3.739   8.607 -0.1722  0.1825 -0.1288
    1W        W35731  29.469   4.585   0.029  0.1837  0.0436  0.1488
    1W        W35732  10.731   3.799   7.148  0.0654 -0.1125 -0.3324
    1W        W35733   1.977  23.089   2.983 -0.1007 -0.0741  0.0296
    1W        W35734  20.218   0.424   8.789  0.1307 -0.0510 -0.0648
    1W        W35735  15.011  18.380   6.363 -0.2080 -0.0037  0.1670
    1W        W35736  28.626  10.792   1.166 -0.1600  0.1125  0.0174
    1W        W35737   6.129  13.407   8.444 -0.2845  0.0365 -0.1657
    1W        W35738  26.120  16.206   0.065  0.4174  0.1183 -0.1144
    1W        W35739  24.473  19.021   8.563  0.0992  0.2831  0.1131
    1W        W35740  22.016  15.051   0.555 -0.1876 -0.0309  0.0229
    1W        W35741  17.159  20.751   8.137  0.1378  0.3789 -0.2390
    1W        W35742   9.988  19.666   0.340  0.2240 -0.0045  0.1672
    1W        W35743   4.458   0.030   9.058 -0.2028 -0.1861 -0.1035
    1W        W35744  27.361  13.726   7.864  0.2196 -0.3651  0.0420
    1W        W35745  16.043   9.955   7.269 -0.2509  0.1635  0.1855
    1W        W35746   1.330  29.517   7.892  0.0760  0.0355  0.2315
    1W        W35747   2.971  21.909   6.411 -0.3667 -0.0813  0.0232
    1W        W35748  29.432  10.096   8.542  0.0812 -0.1373 -0.3783
    1W        W35749  25.906  14.200   0.563  0.0091 -0.0235  0.1655
    1W        W35750  11.405   9.931   1.303  0.3118  0.1800 -0.0645
    1W        W35751  28.169  18.825   8.359  0.1149 -0.0761  0.0126
    1W        W35752  23.954  28.691   6.650  0.0535  0.0036  0.1767
    1W        W35753   7.042   6.498   7.266 -0.2727 -0.1134  0.1001
    1W        W35754  11.251  15.705   0.054 -0.1842 -0.1619  0.0486
    1W        W35755  12.634  15.018   2.497  0.1891  0.1237 -0.5390
    1W        W35756  11.224   0.273   6.755  0.1507  0.1031  0.0190
    1W        W35757   7.035  10.434   8.624  0.0594  0.0290  0.2395
    1W        W35758  17.004   0.483   3.532 -0.0598 -0.0380 -0.2036
    1W        W35759  17.391   9.992   8.755 -0.0417 -0.0243 -0.0358
    1W        W35760   8.284  20.252   9.024  0.2197  0.2229  0.1421
    1W        W35761   9.922  14.425   6.253  0.0463  0.1503  0.1360
    1W        W35762  23.301   1.605   0.233  0.0272 -0.2987 -0.2116
    1W        W35763   8.900   0.957   0.748  0.0969  0.2938  0.1367
    1W        W35764  25.567  26.041   0.538  0.0227  0.2117 -0.2332
    1W        W35765  27.322  27.625   8.893 -0.1084 -0.0034 -0.1158
    1W        W35766  28.658   3.301   9.364  0.1274  0.0392  0.2422
    1W        W35767  20.500   2.442   8.473 -0.1859 -0.1266 -0.1481
    1W        W35768   2.615  25.614   1.174  0.1397 -0.1581 -0.1198
    1W        W35769   5.002   7.567   0.158 -0.1558 -0.0292 -0.3373
    1W        W35770  19.661  16.806   6.759  0.2823  0.0446  0.0177
    1W        W35771  24.922  17.239   1.409 -0.0796  0.0239  0.0486
    1W        W35772   0.545  14.367   7.845 -0.3027 -0.3519  0.3364
    1W        W35773  11.532  20.749   1.113  0.1228  0.2850 -0.2287
    1W        W35774  25.304   4.803   2.353  0.2555  0.1950  0.1397
    1W        W35775   7.756  27.914   0.319 -0.1151  0.3538 -0.1545
    1W        W35776  12.341  28.954   0.028 -0.1653 -0.0643  0.2849
    1W        W35777  19.446  12.932   9.348  0.4265  0.2811  0.2298
    1W        W35778  12.041  12.777   2.914 -0.1264 -0.1640 -0.0774
    1W        W35779  12.518   4.852   3.325 -0.0128  0.1282 -0.2734
    1W        W35780   5.389  26.492   0.773  0.1468 -0.1513  0.0620
    1W        W35781  18.173  20.723   2.217  0.0488 -0.1120 -0.2102
    1W        W35782   5.049   6.625   0.151  0.2416  0.0110 -0.0501
    1W        W35783  14.230   4.506   2.684 -0.2362 -0.1495 -0.1608
    1W        W35784  14.592   3.071   4.020  0.3247 -0.2126 -0.1109
    1W        W35785   7.054  10.544   1.878 -0.1076  0.3102 -0.1166
    1W        W35786   3.225  23.850   6.262 -0.2121  0.0107  0.1211
    1W        W35787   3.898   8.251   9.123  0.1812  0.0263  0.2552
    1W        W35788  20.854  11.489   1.960 -0.1161  0.2803 -0.1358
    1W        W35789  13.358  28.399   9.353  0.0046  0.1410  0.0001
    1W        W35790   2.388  15.388   0.851  0.0628  0.1545  0.1599
    1W        W35791  16.792   3.763   2.755  0.0054  0.0723  0.1150
    1W        W35792   5.474   0.352   2.029  0.1406  0.0182 -0.1252
    1W        W35793  23.052   1.055   0.911  0.3026  0.0899  0.3200
    1W        W35794  14.066  27.011   2.644  0.3598  0.0081 -0.1544
    1W        W35795  28.597  14.727   1.789  0.0414  0.0816 -0.0674
    1W        W35796  26.653  24.787   7.763 -0.0149 -0.0971  0.0853
    1W        W35797  22.814  10.677   1.602 -0.0165  0.0440  0.2305
    1W        W35798   4.291   7.693   0.882  0.0935  0.1640 -0.0675
    1W        W35799  28.353  19.611   0.607  0.2917 -0.0595 -0.3722
    1W        W35800  15.842   2.660   8.823 -0.1271 -0.2344  0.0984
    1W        W35801   5.196  25.211   7.548  0.2756 -0.1602 -0.1765
    1W        W35802  15.692  28.294   8.367 -0.0159  0.3249 -0.0604
    1W        W35803   5.174  12.317   9.521  0.2390  0.0075  0.2175
    1W        W35804   1.340  29.121   9.162  0.0499 -0.1334 -0.3151
    1W        W35805   5.176  19.518   1.599 -0.0700  0.1285  0.1541
    1W        W35806  19.117   2.604   2.136  0.1043 -0.0844 -0.1311
    1W        W35807   4.550  10.154   1.332  0.0023  0.1256  0.0382
    1W        W35808   5.251   8.584   6.858  0.2198 -0.0434  0.0635
    1W        W35809  10.138   9.527   8.791  0.0500  0.2097 -0.0403
    1W        W35810  24.517  23.041   8.493 -0.2428 -0.0582 -0.0018
    1W        W35811   7.399  17.859   7.702  0.2266  0.1841 -0.0094
    1W        W35812  24.304  19.313   7.067  0.0675  0.3161  0.2159
    1W        W35813  10.036  22.648   6.549  0.2947  0.1002  0.2783
    1W        W35814   0.261  24.788   7.950  0.0257  0.0044 -0.0544
    1W        W35815   2.852  27.285   0.474 -0.0164 -0.1756  0.0073
    1W        W35816   5.472  26.820   6.024  0.0062 -0.1419  0.3397
    1W        W35817   9.265  12.411   0.849 -0.0457  0.2700  0.3312
    1W        W35818  11.124  13.554   2.245  0.0310  0.2497  0.1586
    1W        W35819  25.372  10.386   0.614  0.2168  0.1106  0.1756
    1W        W35820   9.266  12.976   6.722 -0.3290  0.0028  0.5645
    1W        W35821   8.615  14.566   8.687 -0.0174  0.1723  0.3008
    1W        W35822  23.893   0.080   3.744 -0.1435  0.0233  0.1121
    1W        W35823  25.169  21.386   8.928 -0.2272  0.1112 -0.1006
    1W        W35824   9.796  20.400   1.864  0.1585  0.3240  0.3774
    1W        W35825  20.516  24.581   7.683 -0.2600 -0.0266 -0.1368
    1W        W35826  24.721  13.835   1.079 -0.0042 -0.0625 -0.1362
    1W        W35827  18.382  10.910   1.477 -0.0254 -0.2257  0.1808
    1W        W35828   4.330   9.340   7.341  0.0148  0.1753  0.0394
    1W        W35829  10.966   9.467   1.397  0.0469 -0.0516  0.1987
    1W        W35830  20.385   9.472   2.240 -0.3012 -0.1231  0.0395
    1W        W35831  22.922  21.426   9.331  0.2522  0.0824  0.0134
    1W        W35832  12.069  22.932   7.963  0.4137  0.0484  0.1581
    1W        W35833   7.975  19.071   8.425 -0.2418 -0.1657 -0.1184
    1W        W35834  19.797  20.596   7.969  0.1736  0.0366  0.0706
    1W        W35835   3.046   7.631   9.290  0.1023 -0.2385  0.0944
    1W        W35836  16.919   2.745   3.164  0.1571  0.0142 -0.2448
    1W        W35837  12.684   6.319   9.342  0.0713 -0.2948  0.2653
    1W        W35838  21.078  26.625   7.404 -0.2119 -0.0885  0.2517
    1W        W35839  12.129  18.947   5.621  0.1091 -0.0277 -0.0239
    1W        W35840  12.624   1.009   8.413  0.0726 -0.0828 -0.1511
    1W        W35841  15.468  23.981   5.959 -0.0838  0.0309 -0.1792
    1W        W35842   7.667  19.696   1.787 -0.0110 -0.0958 -0.0728
    1W        W35843   8.627   3.805   2.084 -0.1434 -0.1508 -0.0287
    1W        W35844  22.261  22.245   7.021  0.3571  0.0219 -0.0926
    1W        W35845  10.737  17.687   1.113 -0.1936 -0.0456  0.0553
    1W        W35846  15.635  27.364   6.149 -0.2003 -0.0499  0.0470
    1W        W35847   1.443  23.721   6.511 -0.2731  0.0998  0.2500
    1W        W35848  21.208   2.111   8.301  0.0439 -0.1454 -0.1396
    1W        W35849   9.756  21.046   0.283  0.1647 -0.1784 -0.2411
    1W        W35850   4.123  24.309   8.497  0.0750  0.1149  0.1023
    1W        W35851  20.276  17.800   0.805 -0.0286 -0.2448 -0.0215
    1W        W35852   7.817   6.128   1.022 -0.3923 -0.2323  0.1490
    1W        W35853  19.038  18.459   8.451  0.1649 -0.1352  0.2092
    1W        W35854   7.358   8.746   9.051 -0.4767 -0.0690 -0.3340
    1W        W35855   7.589  21.077   1.832  0.0780 -0.0036  0.1299
    1W        W35856  21.430   9.624   9.386 -0.2015  0.2035 -0.2088
    1W        W35857  18.060   5.535   0.658 -0.0595 -0.0107  0.0876
    1W        W35858  15.424  25.463   9.404  0.1149  0.3615 -0.1836
    1W        W35859   3.207  12.462   0.776  0.0213 -0.2325 -0.0554
    1W        W35860  28.656  20.823   7.391 -0.2581  0.2509  0.0106
    1W        W35861   0.840   3.256   1.889  0.1334 -0.0699  0.0824
    1W        W35862  12.724   1.548   8.075  0.1173 -0.0666  0.0144
    1W        W35863   7.078  16.839   6.577  0.2084 -0.2024  0.1121
    1W        W35864  29.663  19.506   9.112 -0.1422 -0.0431 -0.1865
    1W        W35865  24.059  26.015   7.133  0.0599  0.0492 -0.0403
    1W        W35866  12.765  28.530   2.031  0.1114  0.0850  0.3242
    1W        W35867  25.474  12.594   0.702 -0.3194 -0.3542  0.0459
    1W        W35868   0.387  21.890   0.729 -0.1086 -0.3996 -0.1213
    1W        W35869  29.366  24.989   1.570  0.2052 -0.0619  0.1918
    1W        W35870   2.342   1.028   2.611 -0.1628 -0.4946 -0.1676
    1W        W35871  26.896   5.502   2.639  0.1474  0.1592  0.1881
    1W        W35872  14.383   5.295   0.616  0.0009  0.0759 -0.0128
    1W        W35873   4.088   6.295   9.246  0.3441  0.1126 -0.4993
    1W        W35874  25.632   2.696   7.303  0.3267  0.1463 -0.1916
    1W        W35875  25.259  17.359   0.863  0.0484  0.0773  0.0305
    1W        W35876  20.918  19.627   1.313 -0.0324 -0.2570  0.1046
    1W        W35877  19.854   2.211   1.048 -0.0213 -0.0200  0.0515
    1W        W35878  26.415  26.312   0.038 -0.2468  0.0520  0.0860
    1W        W35879  26.734  12.455   0.984 -0.1901  0.0259  0.3137
    1W        W35880  24.756  28.792   2.483  0.1131  0.0613 -0.1638
    1W        W35881  16.878   4.224   3.422  0.0068  0.0189  0.3106
    1W        W35882   4.276  29.403   6.051 -0.4596  0.2396 -0.0911
    1W        W35883  24.440  26.627   0.287 -0.0888  0.3733 -0.1481
    1W        W35884  11.999   5.617   2.123  0.0020 -0.1201  0.0137
    1W        W35885  20.161   9.008   8.314 -0.0134  0.0876  0.2294
    1W        W35886  16.694  24.703   7.105 -0.0705  0.0172  0.1769
    1W        W35887   2.767  17.791   2.578  0.0172  0.0688 -0.0093
    1W        W35888   4.362   1.117   7.142  0.1758 -0.0739 -0.0058
    1W        W35889   1.156   9.953   8.744  0.2057  0.1563  0.1084
    1W        W35890  20.249  24.264   5.547 -0.4246 -0.2444  0.0263
    1W        W35891   9.366  10.231   7.344  0.0820  0.3261 -0.0061
    1W        W35892   6.429  26.576   9.340 -0.1334  0.1164  0.0130
    1W        W35893  11.550  13.774   7.281  0.1697  0.0949 -0.0879
    1W        W35894  27.377   1.674   7.429 -0.0272  0.3236 -0.1155
    1W        W35895   3.301  20.267   8.547 -0.1719  0.1091 -0.1688
    1W        W35896  24.667  15.491   2.294  0.2743 -0.0929  0.0622
    1W        W35897  21.801  22.468   7.274 -0.5434 -0.0626 -0.0023
    1W        W35898   3.607  26.295   0.614  0.1160 -0.0478  0.1780
    1W        W35899   3.154  18.568   2.189 -0.0643 -0.1664  0.1547
    1W        W35900   3.674  28.314   1.512  0.2059 -0.1541 -0.2207
    1W        W35901  15.678  16.067   0.928 -0.0706 -0.0105 -0.3920
    1W        W35902  17.115   5.088   0.783 -0.0330 -0.0323 -0.0493
    1W        W35903  24.947  22.305   9.137 -0.3422  0.3874  0.2658
    1W        W35904  10.633  15.785   1.877  0.2466  0.0030 -0.0640
    1W        W35905  29.301   6.695   8.948 -0.1268  0.0664  0.0187
    1W        W35906  19.276  15.239   7.587 -0.3273  0.3497 -0.1915
    1W        W35907  11.351  29.530   0.841 -0.1911  0.1087  0.2635
    1W        W35908  15.717   9.995   7.739  0.0507 -0.1794  0.0157
    1W        W35909  24.325  20.811   9.479 -0.2772 -0.0505  0.0144
    1W        W35910  28.035  21.391   9.366 -0.3397  0.0293  0.0188
    1W        W35911  29.099  12.171   8.988 -0.0138  0.1477  0.1855
    1W        W35912  15.148   8.294   7.504 -0.3141 -0.1623  0.0260
    1W        W35913  11.737  23.297   1.850  0.3795  0.0530  0.1494
    1W        W35914   1.012   8.859   7.120  0.4052 -0.1213 -0.3574
    1W        W35915   1.354   3.231   1.991  0.2461 -0.4317 -0.2042
    1W        W35916  19.309   9.476   9.061  0.0404 -0.0711 -0.1127
    1W        W35917  27.998   1.148   1.347 -0.1628 -0.0153  0.1832
    1W        W35918  18.038  16.481   6.214  0.3031  0.2940  0.1174
    1W        W35919   9.209  24.917   6.276 -0.2058  0.0909  0.1203
    1W        W35920   7.470  20.278   9.483 -0.0808 -0.1774  0.0533
    1W        W35921  26.353  21.453   1.531 -0.0002  0.1825 -0.1945
    1W        W35922  27.906  15.958   1.480  0.0349 -0.1063  0.0197
    1W        W35923  27.204  29.034   8.430 -0.1117 -0.1133  0.2155
    1W        W35924  19.166   7.439   1.165 -0.1823 -0.0789  0.1127
    1W        W35925  12.408   2.824   8.546  0.0823 -0.1555 -0.1798
    1W        W35926   6.093  14.218   0.578  0.1481  0.0353 -0.2815
    1W        W35927   2.367   2.290   7.865  0.1195 -0.0352  0.0084
    1W        W35928  28.016  26.926   8.667 -0.3573 -0.0226 -0.0043
    1W        W35929  12.939  21.080   1.750  0.1135  0.0730  0.1044
    1W        W35930  23.433  22.015   3.175 -0.3576 -0.0705  0.2433
    1W        W35931   6.070  18.091   0.510 -0.1729 -0.1334  0.1035
    1W        W35932  14.966   2.964   1.640 -0.0564  0.0948  0.4276
    1W        W35933  26.854  24.957   1.694  0.0131 -0.1815  0.0468
    1W        W35934  22.865  13.115   7.702 -0.2561  0.0519  0.3064
    1W        W35935   4.781  15.861   9.283  0.0088  0.2847  0.0626
    1W        W35936  12.285  15.659   6.858 -0.1066 -0.0306 -0.1412
    1W        W35937  22.017  20.669   9.385  0.0969 -0.2372  0.0895
    1W        W35938   1.839  28.842   1.269  0.0718  0.1798 -0.4153
    1W        W35939  25.182  13.349   2.128  0.1019 -0.1250  0.4815
    1W        W35940  13.730  16.270   9.467  0.0121  0.1918 -0.1048
    1W        W35941  16.284  29.340   0.407  0.0543  0.4025  0.0803
    1W        W35942  29.131   5.807   9.257  0.0841 -0.4248  0.3424
    1W        W35943   1.006  23.539   9.287  0.0976 -0.3201 -0.0354
    1W        W35944   7.197   8.559   7.709  0.0100  0.1108  0.2933
    1W        W35945   9.542  16.305   8.123 -0.1480 -0.1737  0.0890
    1W        W35946  26.624  11.040   7.805  0.4333 -0.0516  0.2314
    1W        W35947  15.307  27.675   2.095 -0.0469 -0.0843  0.0023
    1W        W35948  22.106  15.613   9.395 -0.0126  0.1480  0.0785
    1W        W35949   8.563  24.571   9.422 -0.0955  0.0775  0.3697
    1W        W35950  18.243  11.713   0.634  0.0738  0.1464  0.1864
    1W        W35951  23.109   8.780   1.970  0.1429 -0.1518  0.1763
    1W        W35952   6.878  27.061   9.129  0.0632  0.1021 -0.0941
    1W        W35953   5.533   1.204   6.366  0.0321 -0.1109  0.2178
    1W        W35954  26.604  14.997   2.634  0.1797 -0.1708  0.3438
    1W        W35955   2.482  16.014   9.048  0.0891 -0.0191 -0.0278
    1W        W35956  11.600  15.061   0.808  0.1172  0.0049  0.0876
    1W        W35957  28.959   5.714   2.852  0.2962  0.0394 -0.1357
    1W        W35958  14.903   5.821   2.263 -0.1437 -0.0120 -0.0555
    1W        W35959  29.446  24.012   9.321 -0.0196 -0.2071  0.0962
    1W        W35960  26.942   5.056   8.688 -0.0513 -0.1069  0.1390
    1W        W35961  21.745   4.483   8.479 -0.1626 -0.2402 -0.0583
    1W        W35962  12.355  21.054   1.782  0.0671 -0.2599 -0.1598
    1W        W35963   6.611  24.447   6.743  0.0283  0.1084  0.3133
    1W        W35964  19.737  16.011   7.677 -0.1374 -0.0076  0.1087
    1W        W35965  13.905   0.618   8.237 -0.1150  0.2445 -0.0434
    1W        W35966  18.523  18.390   7.992 -0.0470 -0.0923 -0.1337
    1W        W35967  19.561   8.520   1.904  0.1226  0.1378  0.0700
    1W        W35968  19.511  26.605   6.700  0.0102  0.1597  0.0773
    1W        W35969   3.974  18.620   8.366  0.1164 -0.0168  0.0093
    1W        W35970  24.301  19.359   1.149 -0.0519 -0.1953 -0.1344
    1W        W35971   4.176  23.965   5.967 -0.0756  0.0431 -0.2057
    1W        W35972  22.441   5.203   0.038 -0.1229  0.0481 -0.0655
    1W        W35973  14.077   6.645   9.506 -0.4610 -0.3938 -0.4356
    1W        W35974   7.789   2.343   1.370 -0.0532  0.2911  0.2156
    1W        W35975  19.059  14.583   1.463  0.3388  0.3576  0.1037
    1W        W35976  21.547  28.949   1.047 -0.0289  0.1541  0.1772
    1W        W35977  13.973   7.820   2.220  0.2673  0.3981 -0.2836
    1W        W35978   1.700  12.155   7.359  0.0950  0.0863 -0.2549
    1W        W35979   5.286  25.085   6.156 -0.1625  0.1239  0.1012
    1W        W35980  12.628  25.477   2.604 -0.1935 -0.5423 -0.0989
    1W        W35981  16.548   5.464   1.630 -0.1119  0.3392 -0.1694
    1W        W35982  17.927  16.836   8.530  0.0481 -0.0573  0.0883
    1W        W35983  27.323  25.234   8.334 -0.0065  0.1279  0.3587
    1W        W35984   3.741   6.519   2.881 -0.0221  0.1026  0.0216
    1W        W35985  25.912  10.773   1.991 -0.0687  0.1688  0.1065
    1W        W35986  10.136  15.966   1.690 -0.0223 -0.1963 -0.0422
    1W        W35987  13.739   1.232   0.008  0.6250  0.0775 -0.1762
    1W        W35988  10.655   3.149   1.054 -0.2054  0.0093 -0.2290
    1W        W35989   9.393  24.231   9.006  0.3349  0.0277  0.0533
    1W        W35990  20.325   5.838   0.619 -0.0617  0.0642 -0.0563
    1W        W35991  28.284  12.324   6.483 -0.2011  0.0330 -0.1822
    1W        W35992  22.343   3.384   9.197  0.1054  0.1063 -0.2577
    1W        W35993   8.070  15.696   2.346  0.1903  0.0798 -0.0463
    1W        W35994   9.653  15.909   2.373 -0.0114 -0.1884  0.0178
    1W        W35995  12.805  13.491   1.572  0.0210 -0.3523  0.2512
    1W        W35996   3.435   0.979   8.113  0.1420  0.1376  0.0636
    1W        W35997   2.150  22.378   1.447  0.2443  0.1779  0.0866
    1W        W35998  24.356  23.288   7.596  0.0504  0.0951 -0.0985
    1W        W35999  29.452  16.918   6.823  0.0725 -0.0922 -0.1430
    1W        W36000  14.523   1.415   3.487 -0.2889  0.0428 -0.0543
    1W        W36001  27.819  18.950   7.205  0.2472  0.1665 -0.0367
    1W        W36002   5.810   1.382   1.071 -0.0954  0.0479  0.4042
    1W        W36003  26.977   1.174   2.120 -0.1891  0.0819  0.0192
    1W        W36004   8.559   4.143   0.250 -0.1354 -0.0720 -0.3744
    1W        W36005  12.165  14.747   8.061  0.3124 -0.0495  0.1530
    1W        W36006  10.150   0.785   8.787 -0.1815  0.1725 -0.4156
    1W        W36007  10.892   0.824   0.521  0.2596  0.2019  0.1501
    1W        W36008   8.779  28.733   9.293 -0.1143 -0.0628 -0.3027
    1W        W36009  12.599  22.822   0.238  0.0893 -0.2126 -0.2187
    1W        W36010  20.845  28.369   9.475  0.1111 -0.2602 -0.1211
    1W        W36011  12.067  20.822   1.309  0.1651  0.2188  0.2799
    1W        W36012   2.981  17.409   8.891 -0.2327 -0.0613  0.0369
    1W        W36013  18.359   3.020   1.997 -0.0856 -0.0531 -0.1279
    1W        W36014   6.168  14.890   1.736 -0.0283 -0.1748  0.0892
    1W        W36015  19.282  14.386   0.158 -0.1976  0.1495  0.4980
    1W        W36016  21.044  22.993   8.863  0.0907  0.1035  0.1222
    1W        W36017  10.421  18.723   8.814 -0.0978  0.6045  0.1031
    1W        W36018  13.554  23.440   1.335 -0.1950  0.1075 -0.1652
    1W        W36019  24.607  20.977   8.538 -0.1450 -0.1509 -0.1170
    1W        W36020  26.958  17.398   1.640 -0.3336  0.0692 -0.3061
    1W        W36021   1.039  22.997   1.539 -0.0933  0.0098  0.0025
    1W        W36022  15.732   6.386   2.416  0.1214 -0.0626 -0.0513
    1W        W36023  25.590   1.026   9.392 -0.1505  0.1152 -0.0288
    1W        W36024  20.633   1.414   2.570 -0.0216 -0.0375 -0.0494
    1W        W36025  20.728  12.586   7.419 -0.0688 -0.1246 -0.0719
    1W        W36026   9.986  28.974   9.419  0.1098  0.1559 -0.0525
    1W        W36027  29.155  21.864   9.403 -0.0860 -0.4282  0.0800
    1W        W36028  20.416  25.253   6.319 -0.2129 -0.2447  0.0142
    1W        W36029  24.878  28.888   2.985 -0.1413 -0.0775  0.4016
    1W        W36030  26.146  28.876   8.058  0.1142 -0.1923  0.0781
    1W        W36031  10.358  21.396   7.564 -0.0294  0.3364 -0.1199
    1W        W36032  21.896  26.616   1.002 -0.0991 -0.0761 -0.2832
    1W        W36033  11.905  29.661   1.982 -0.0116  0.1748 -0.1750
    1W        W36034  21.358  21.720   7.492  0.3775  0.0897  0.2434
    1W        W36035  27.173  14.668   0.355  0.2564  0.1474  0.1645
    1W        W36036  29.686  23.765   7.346  0.1446 -0.4104 -0.0059
    1W        W36037   4.813  10.107   7.029  0.2149  0.1620 -0.1255
    1W        W36038  22.797  22.104   7.089  0.1922  0.1394  0.0892
    1W        W36039  10.321  28.317   1.332 -0.1004  0.0833  0.0632
    1W        W36040   8.425  23.386   5.749  0.0198 -0.0931  0.1821
    1W        W36041  21.641  10.472   1.389  0.4569 -0.1874  0.0268
    1W        W36042  20.641  18.889   0.633 -0.0345  0.0320  0.0241
    1W        W36043   6.115   0.076   1.363 -0.2853 -0.2499  0.1420
    1W        W36044  24.546   6.014   3.179  0.0511 -0.1379  0.0190
    1W        W36045  24.542   7.906   8.792 -0.2612 -0.2495 -0.1094
    1W        W36046  19.590   5.040   8.985  0.0688 -0.4704  0.0435
    1W        W36047  29.456   9.474   7.685 -0.1253  0.1245  0.0754
    1W        W36048  23.343  20.927   7.056  0.0843 -0.0342 -0.0917
    1W        W36049  27.714  22.434   8.512  0.2760 -0.1836 -0.1755
    1W        W36050  21.577  23.961   7.413 -0.1778  0.3043  0.1703
    1W        W36051  21.698   3.968   0.253  0.1135 -0.1417  0.0259
    1W        W36052   8.514   8.328   1.927 -0.2350  0.3109  0.1058
    1W        W36053  16.120   9.141   7.846  0.4628  0.0342 -0.1395
    1W        W36054   9.049  13.014   0.069 -0.0372  0.3432  0.2508
    1W        W36055  19.390  16.001   1.395 -0.1898  0.0592  0.1194
    1W        W36056  19.422  19.166   2.004  0.1045  0.0021 -0.0833
    1W        W36057  26.862  24.922   8.629 -0.1687  0.0317 -0.1585
    1W        W36058   8.210   0.359   8.300 -0.1424 -0.1668  0.3534
    1W        W36059  27.465  16.070   1.253 -0.0056 -0.0009 -0.2856
    1W        W36060   9.938   7.871   7.061  0.0718  0.2621  0.0099
    1W        W36061   5.082   8.477   9.272 -0.4460  0.0377 -0.2598
    1W        W36062  23.937  29.641   6.984 -0.1395 -0.0832  0.3048
    1W        W36063   8.942  11.046   0.257  0.3276  0.1103 -0.1567
    1W        W36064  11.544   6.902   8.518 -0.1579  0.0176  0.2878
    1W        W36065  25.054   3.706   2.318 -0.3083 -0.2047  0.3311
    1W        W36066  20.991   6.024   3.370  0.1233 -0.0448 -0.0585
    1W        W36067  20.691  23.828   2.233  0.4771  0.4349  0.0858
    1W        W36068  27.329  27.082   9.024 -0.0607 -0.2243 -0.2201
    1W        W36069  18.671  26.132   2.491 -0.1169  0.0613 -0.2193
    1W        W36070  13.941  20.638   7.496 -0.1226  0.0445 -0.0064
    1W        W36071  11.771  28.432   7.122  0.0577  0.0218 -0.1052
    1W        W36072  11.448  16.940   0.297  0.1586 -0.1366 -0.0052
    1W        W36073  27.239  18.412   1.361 -0.2448 -0.0609  0.1511
    1W        W36074  12.262   9.410   0.356  0.1197 -0.1154 -0.0271
    1W        W36075  22.292   1.267   2.529  0.0767 -0.0594 -0.2320
    1W        W36076   5.634  23.536   0.749 -0.1555 -0.2814  0.3558
    1W        W36077  14.432  15.327   8.704 -0.1174 -0.0229  0.0167
    1W        W36078  27.555   5.131   8.640 -0.3118  0.1666 -0.1035
    1W        W36079   9.409   3.993   2.103 -0.0218  0.1811 -0.3426
    1W        W36080   8.430  26.724   8.902 -0.3538 -0.0481  0.0910
    1W        W36081  21.416  24.002   6.328  0.0678  0.4395 -0.3240
    1W        W36082   2.030   3.471   7.551 -0.0794  0.0061 -0.5764
    1W        W36083  12.547  13.822   6.703  0.1580 -0.1676 -0.2956
    1W        W36084  15.676  21.050   9.054 -0.3320  0.3609 -0.1608
    1W        W36085   9.224  16.890   7.166 -0.0229 -0.1330  0.1844
    1W        W36086   2.247   1.718   7.713  0.2167 -0.0929 -0.1320
    1W        W36087   5.114  21.248   1.891 -0.0093 -0.2165  0.3029
    1W        W36088   8.113  20.718   8.904  0.1624 -0.2347  0.1487
    1W        W36089   0.508  17.713   9.495 -0.0193  0.2105 -0.2262
    1W        W36090  11.828  25.556   9.157  0.1403  0.1295  0.2012
    1W        W36091  12.349   3.925   2.297 -0.1177 -0.1544  0.0788
    1W        W36092  24.867  29.317   1.203 -0.0929  0.0442  0.2325
    1W        W36093  20.007   4.607   0.179 -0.0046 -0.0815 -0.3559
    1W        W36094  20.447  20.291   1.858  0.0373  0.3316  0.0350
    1W        W36095  27.866  24.111   7.566  0.0645  0.3283 -0.0814
    1W        W36096  29.374  27.204   1.404 -0.0761  0.0846 -0.3993
    1W        W36097  25.293   6.131   8.679  0.1032  0.0011  0.0407
    1W        W36098  29.737  17.271   0.313  0.2237  0.2348  0.1016
    1W        W36099  14.850  12.131   8.993  0.0497  0.3797 -0.2361
    1W        W36100  17.087  20.358   9.090  0.3202  0.1306  0.0161
    1W        W36101   2.196  23.829   0.708 -0.2061  0.1279 -0.1725
    1W        W36102  21.471  11.758   2.612  0.1424  0.1866 -0.1453
    1W        W36103  27.800   4.833   8.230  0.2160  0.3267 -0.3566
    1W        W36104  24.641  28.870   8.588  0.1326  0.1404  0.0986
    1W        W36105  11.472  11.577   0.911  0.1142  0.1304  0.1489
    1W        W36106  24.836  26.208   6.819  0.0808 -0.0480  0.0668
    1W        W36107  13.949  17.757   7.805 -0.0951 -0.1444  0.1790
    1W        W36108   0.729  24.386   7.865  0.0955  0.0786 -0.3795
    1W        W36109  21.015  17.213   0.010  0.0952 -0.1074  0.0291
    1W        W36110   2.923  13.495   2.878  0.2244 -0.1322 -0.0610
    1W        W36111  17.675   9.010   8.761  0.0663 -0.2167 -0.2320
    1W        W36112  20.267  19.337   6.374 -0.1607  0.2435 -0.2369
    1W        W36113  24.054  18.830   8.846 -0.4431 -0.1177 -0.1080
    1W        W36114  14.142   3.658   9.169  0.0366  0.0770 -0.2621
    1W        W36115   0.715  22.952   6.528 -0.5222  0.0818  0.1923
    1W        W36116  26.891   5.670   2.167  0.2344 -0.5846  0.0335
    1W        W36117  25.480  29.509   7.494 -0.3260  0.0327 -0.1588
    1W        W36118  21.625   8.732   8.994 -0.0329  0.1153  0.0075
    1W        W36119  16.420   1.883   8.537  0.3627  0.0012 -0.2846
    1W        W36120   1.060   3.592   2.286  0.0326  0.1686  0.3238
    1W        W36121   2.482  17.735   2.097  0.0571  0.3829  0.1112
    1W        W36122   0.229  23.222   7.641  0.0312  0.2259 -0.2579
    1W        W36123  16.457  15.354   1.701 -0.0955 -0.0059  0.1505
    1W        W36124  15.605   8.938   2.713 -0.3309  0.0289 -0.1074
    1W        W36125  25.673  15.494   0.280 -0.1443 -0.3262 -0.1272
    1W        W36126   0.333   9.295   7.634 -0.0449  0.1528 -0.0394
    1W        W36127  25.706   5.149   0.174  0.2483  0.0597  0.1156
    1W        W36128  27.355   9.786   1.832  0.3311  0.1479 -0.0400
    1W        W36129   1.478  16.630   8.335  0.1344  0.1130  0.0842
    1W        W36130  14.711   1.881   3.186 -0.0571 -0.1267  0.0899
    1W        W36131   8.838  14.592   7.876 -0.0249 -0.2861  0.0062
    1W        W36132   8.532  10.605   8.663  0.0337  0.0913 -0.2759
    1W        W36133  11.658  24.065   9.110 -0.0964  0.1758 -0.1059
    1W        W36134  22.408   7.099   8.027  0.0267 -0.4032  0.2842
    1W        W36135   4.351  24.313   6.275 -0.4007 -0.1491 -0.0041
    1W        W36136  16.873  22.476   8.337  0.3847 -0.1838 -0.2047
    1W        W36137  18.183  17.582   1.499 -0.0659  0.0941 -0.0714
    1W        W36138   6.162  19.847   6.034 -0.1455  0.0606  0.1691
    1W        W36139  23.613  17.421   2.016  0.1035 -0.4335 -0.1721
    1W        W36140  13.068  20.910   8.287  0.0831 -0.2569  0.0747
    1W        W36141  27.061  23.559   0.327  0.0814 -0.0507  0.1224
    1W        W36142  15.934  17.923   7.426  0.0170 -0.2381  0.0139
    1W        W36143  29.277  18.030   2.569  0.0542 -0.0776 -0.2241
    1W        W36144  22.976  20.756   2.221  0.1837 -0.0668 -0.4647
    1W        W36145   7.719   1.389   0.188  0.3614 -0.2512 -0.0921
    1W        W36146  26.896  19.854   7.069  0.4299 -0.3203 -0.0368
    1W        W36147  28.086   1.000   7.154  0.4603 -0.0157  0.0057
    1W        W36148  28.828   3.728   8.850 -0.0255  0.0613 -0.1172
    1W        W36149  13.332  27.967   1.910 -0.1016  0.1060 -0.1526
    1W        W36150   0.431  14.690   1.341  0.0285  0.0987 -0.1801
    1W        W36151  27.161  12.608   1.283  0.1879 -0.0130  0.2555
    1W        W36152   4.802  17.634   2.341  0.0046 -0.0596  0.1146
    1W        W36153  22.038  16.656   7.523  0.0868 -0.3643 -0.2685
    1W        W36154  12.089  21.130   6.613 -0.2148  0.2591 -0.1003
    1W        W36155  29.147   0.750   8.693  0.1342  0.0532 -0.1101
    1W        W36156  15.125  29.125   9.356  0.1208  0.0963 -0.2418
    1W        W36157  22.953  14.451   9.287 -0.3125  0.0193  0.0974
    1W        W36158  25.516   7.882   8.876  0.2142 -0.0473  0.2458
    1W        W36159  18.935   1.007   8.717  0.1957  0.1407  0.1954
    1W        W36160  25.468  24.572   9.453 -0.0309 -0.0931 -0.0336
    1W        W36161  16.965   9.066   1.803  0.3761 -0.0626  0.2018
    1W        W36162  25.760  23.217   3.624 -0.4178  0.0122  0.1930
    1W        W36163   0.869  11.808   1.277 -0.0737 -0.3869  0.1435
    1W        W36164   7.075   3.293   2.116 -0.3530 -0.0419  0.1082
    1W        W36165  15.129  19.584   5.800 -0.1100 -0.0192  0.0914
    1W        W36166  25.605   9.340   9.396  0.2786  0.1604 -0.0945
    1W        W36167  26.931  12.957   2.011  0.3097  0.0240  0.3631
    1W        W36168  11.801   7.033   3.722  0.0166 -0.1865  0.2680
    1W        W36169  18.661  21.433   6.738  0.1869 -0.1884 -0.1110
    1W        W36170  15.882  13.739   2.665  0.0495 -0.0623  0.2041
    1W        W36171  25.430  16.257   1.370 -0.1804  0.0710 -0.1956
    1W        W36172  11.118  27.126   1.706  0.2005 -0.1549  0.1796
    1W        W36173   0.829  14.590   0.513 -0.1042  0.2454  0.2418
    1W        W36174  23.932  26.124   2.698  0.1891 -0.1670  0.1827
    1W        W36175  20.305  22.490   8.634  0.1244  0.1585 -0.0358
    1W        W36176  24.852   6.134   1.354 -0.1694  0.2228  0.1172
    1W        W36177  12.049  25.527   6.711 -0.2812 -0.4248 -0.0951
    1W        W36178  20.555  19.055   6.903  0.2276  0.4948  0.1112
    1W        W36179   5.927  25.872   1.301 -0.0226 -0.0882  0.0072
    1W        W36180   5.644  10.265   1.438  0.2516 -0.1667 -0.0327
    1W        W36181  13.493   3.426   4.238  0.2165 -0.1599  0.0214
    1W        W36182   0.076  19.629   3.135 -0.1278 -0.2816 -0.0029
    1W        W36183  10.749  10.057   7.847 -0.2748 -0.2616 -0.1084
    1W        W36184  24.447   5.996   2.684 -0.2229  0.1424 -0.0124
    1W        W36185  21.690   0.125   0.579  0.1260  0.1538  0.0211
    1W        W36186   7.067  12.298   7.728 -0.0947  0.1859 -0.1295
    1W        W36187   8.360   6.157   2.156  0.0686 -0.1523 -0.2128
    1W        W36188   8.126   0.633   1.776  0.3846  0.3144 -0.0682
    1W        W36189  16.797  19.629   1.121  0.3113  0.0751 -0.1551
    1W        W36190  25.933   0.354   8.289  0.3730  0.2734  0.0132
    1W        W36191   3.053  24.698   0.380 -0.1583  0.3096 -0.0976
    1W        W36192  21.448  24.930   9.144  0.1492 -0.3321 -0.1188
    1W        W36193   1.342  23.125   0.322  0.4144 -0.2382 -0.0163
    1W        W36194   6.179  26.286   5.333  0.1117  0.1633 -0.1406
    1W        W36195  16.275  14.408   1.643 -0.1280  0.2394  0.1330
    1W        W36196  14.410  17.048   1.433 -0.1858  0.1011  0.1340
    1W        W36197  16.783   0.089   8.089 -0.0167  0.0429 -0.2080
    1W        W36198  18.724   8.510   0.639  0.0542 -0.0439  0.0648
    1W        W36199  19.787  18.532   8.866  0.4502 -0.3168 -0.3671
    1W        W36200  28.777  27.075   9.139 -0.2505  0.0623 -0.3432
    1W        W36201  23.969  22.942   8.225  0.0467  0.0134 -0.2038
    1W        W36202   6.444  15.699   2.715  0.0113 -0.1352 -0.3561
    1W        W36203  21.548  20.631   9.280  0.1450 -0.1721 -0.0258
    1W        W36204  27.269   8.562   8.372  0.0092 -0.1633  0.2944
    1W        W36205  10.678  22.702   1.161 -0.1264  0.2435 -0.3177
    1W        W36206   1.672  19.808   1.203  0.1245  0.0942 -0.2632
    1W        W36207  10.397  27.113   1.924  0.1325  0.0887  0.4200
    1W        W36208   2.249  23.374   6.162 -0.0306 -0.3362  0.2508
    1W        W36209  15.377  10.273   1.997  0.0499  0.0316 -0.0643
    1W        W36210   7.202  10.470   0.063 -0.2857 -0.1959  0.2305
    1W        W36211  14.632  12.117   0.500 -0.4788 -0.0073 -0.1187
    1W        W36212   2.810  26.745   7.880  0.0832 -0.0842 -0.0704
    1W        W36213  17.210   9.126   0.099  0.0453  0.2007  0.1206
    1W        W36214  25.680  24.423   6.492  0.0523  0.1871 -0.2357
    1W        W36215  22.693  17.238   5.931 -0.0307 -0.3102  0.1317
    1W        W36216   0.599   2.442   3.063 -0.0822 -0.1259 -0.0262
    1W        W36217  20.262  28.843   7.769  0.0074  0.0038  0.2056
    1W        W36218  22.681  17.349   8.879 -0.2963 -0.1268 -0.0758
    1W        W36219  16.170  19.710   9.301 -0.0689  0.2464 -0.1917
    1W        W36220  15.945   4.170   8.597 -0.3115  0.3192  0.0432
    1W        W36221  22.109  11.076   8.470 -0.2327 -0.4373  0.0762
    1W        W36222  27.544   5.958   1.192  0.2664  0.1092 -0.1156
    1W        W36223  16.200   6.048   8.249 -0.0805  0.1529  0.0577
    1W        W36224  11.680  29.850   7.688  0.2007  0.1391 -0.1182
    1W        W36225  21.555   7.205   0.376 -0.1290  0.1394  0.0969
    1W        W36226  25.355  14.728   7.986 -0.2848  0.2024 -0.2465
    1W        W36227   5.223  20.098   5.932 -0.0012 -0.0970 -0.0362
    1W        W36228   5.685  24.089   1.686  0.1120  0.0962  0.2155
    1W        W36229   4.750  16.647   2.183  0.2477  0.1200  0.1498
    1W        W36230  13.961   9.854   9.268 -0.1100 -0.2065  0.1629
    1W        W36231   8.680  12.831   7.177 -0.0666  0.0900  0.0909
    1W        W36232   5.259  18.016   9.188 -0.0064  0.1155  0.0475
    1W        W36233  11.482   3.758   7.238 -0.3548  0.0752 -0.3775
    1W        W36234  27.535   1.223   0.582  0.0050  0.1023  0.0978
    1W        W36235  24.429   0.381   2.578  0.1595  0.0508  0.2739
    1W        W36236   8.662   6.676   6.410 -0.1217 -0.2632  0.2136
    1W        W36237  25.963   3.328   2.530  0.1079  0.1423  0.0344
    1W        W36238  16.005  28.439   1.269  0.0725  0.0922 -0.2079
    1W        W36239   4.859  27.506   5.854  0.1186 -0.0231  0.1965
    1W        W36240  23.514   0.644   7.887 -0.0313  0.0899 -0.1516
    1W        W36241   7.825  23.615   8.180  0.0187  0.0231  0.0637
    1W        W36242   0.796  19.908   0.613 -0.2202 -0.1284  0.0757
    1W        W36243  19.312   9.802   2.658  0.0961  0.0020 -0.0456
    1W        W36244  28.998  16.822   3.222  0.2524  0.0248  0.1127
    1W        W36245  17.055   8.458   9.052  0.0555 -0.1195 -0.2176
    1W        W36246  21.561   6.639   8.755  0.1236  0.0026 -0.0014
    1W        W36247   0.204   7.449   7.551  0.1311  0.3229 -0.0104
    1W        W36248   6.768  13.149   7.570  0.2042 -0.2305  0.1364
    1W        W36249  21.820  29.548   9.289 -0.2877  0.1211 -0.3177
    1W        W36250  25.717  19.566   8.193 -0.1155 -0.1883  0.0918
    1W        W36251   6.985  24.007   7.466  0.3910 -0.4216 -0.0782
    1W        W36252  17.576  17.218   1.257  0.0703  0.0796  0.1448
    1W        W36253  14.817  25.946   0.303  0.1667  0.5253  0.1338
    1W        W36254  17.555   9.487   8.722  0.0534  0.0292 -0.0054
    1W        W36255  19.268   4.833   7.887  0.1404  0.3361 -0.1781
    1W        W36256   5.342  23.841   9.362 -0.0954 -0.4223 -0.1902
    1W        W36257   9.743  24.442   6.201 -0.1450  0.1367 -0.5068
    1W        W36258  14.604  19.323   8.132  0.4957 -0.1354 -0.0310
    1W        W36259   4.704   4.541   8.294  0.1979  0.0741  0.1642
    1W        W36260  13.573  27.607   2.159  0.0624 -0.0971 -0.1716
    1W        W36261  26.372  24.945   7.389 -0.1278 -0.1739  0.0331
    1W        W36262  19.522  20.219   1.864  0.0782  0.0371  0.0909
    1W        W36263  23.834  12.546   0.499 -0.0880 -0.3563  0.0540
    1W        W36264  16.319   9.608   8.567 -0.1501 -0.0689  0.0450
    1W        W36265   7.344   2.729   7.359 -0.0779  0.1157  0.1549
    1W        W36266   7.232  16.934   1.873  0.1548  0.2891  0.2420
    1W        W36267   9.957  25.706   8.502 -0.4124 -0.1276 -0.2432
    1W        W36268  29.324  14.467   0.645 -0.0038 -0.0268  0.0853
    1W        W36269  15.649  19.664   9.291 -0.2071  0.0563  0.2000
    1W        W36270  28.719   5.889   1.255  0.1501  0.0360  0.0798
    1W        W36271  20.855   0.472   8.188  0.0582 -0.4014  0.0335
    1W        W36272  10.576   2.204   3.292  0.0397  0.0777  0.0668
    1W        W36273   3.722  11.044   2.246  0.0559 -0.1998  0.2895
    1W        W36274   3.477  23.225   8.129  0.2604 -0.2526 -0.1941
    1W        W36275  18.451   8.709   1.720 -0.1159  0.2556  0.0453
    1W        W36276  15.794  10.684   0.632 -0.3640  0.0293 -0.0244
    1W        W36277  16.390   3.899   2.526  0.0621  0.0622  0.3417
    1W        W36278   9.236  13.893   8.942 -0.2956 -0.0298  0.1656
    1W        W36279  19.618  23.970   1.978  0.0242  0.0207  0.0334
    1W        W36280   9.392  12.792   1.606  0.1214  0.2207 -0.2754
    1W        W36281   8.457  15.148   7.140 -0.3852  0.1526 -0.0638
    1W        W36282   8.229  22.231   8.582  0.1640 -0.1952 -0.1023
    1W        W36283  14.886   5.371   0.933 -0.2865  0.0687 -0.0072
    1W        W36284  23.079   5.408   7.736  0.2174 -0.0429 -0.0334
    1W        W36285   3.811   1.776   1.316 -0.0515  0.1237  0.2275
    1W        W36286  15.252   5.895   1.613 -0.1294  0.1227 -0.0484
    1W        W36287   1.232  11.039   0.419 -0.0610  0.1236  0.0012
    1W        W36288   0.012  21.037   0.612 -0.0419  0.0381 -0.0222
    1W        W36289  18.918   5.204   4.262  0.3782 -0.1376 -0.0034
    1W        W36290  20.933  28.800   2.857 -0.2169 -0.1350  0.0434
    1W        W36291  16.873  20.670   8.598  0.0328  0.2916 -0.1782
    1W        W36292  24.756  26.212   2.762 -0.0182  0.1115 -0.0160
    1W        W36293  18.393  21.611   5.674 -0.2758  0.1734  0.0889
    1W        W36294   0.678   2.325   2.170  0.2046  0.2118 -0.2455
    1W        W36295  10.856  28.106   7.339 -0.2616  0.1708 -0.0175
    1W        W36296  29.857   3.825   6.718  0.0511  0.1445  0.1087
    1W        W36297  26.511  15.815   1.968  0.2985 -0.0260  0.0150
    1W        W36298   8.505   2.625   7.551 -0.0286  0.2576 -0.0105
    1W        W36299   8.046   7.742   2.190  0.0773  0.2765 -0.0608
    1W        W36300  25.693   5.480   9.235  0.3289  0.1335  0.4114
    1W        W36301   2.714   9.523   8.681 -0.0052 -0.1535 -0.1878
    1W        W36302  26.866  23.611   7.386 -0.2709 -0.1186 -0.0390
    1W        W36303  22.154   5.813   9.119  0.1699  0.0101 -0.3575
    1W        W36304  29.502  13.571   8.524  0.0085 -0.1720 -0.0148
    1W        W36305   8.014   8.366   0.038  0.0193 -0.0971 -0.1615
    1W        W36306  21.620  18.108   2.148 -0.0833 -0.2544 -0.1062
    1W        W36307  22.579   6.681   8.280 -0.4645 -0.2483  0.0364
    1W        W36308  15.758  12.967   1.092  0.1500 -0.0435 -0.1926
    1W        W36309   7.738  11.756   9.115 -0.2440 -0.0943 -0.0781
    1W        W36310  25.060   1.720   7.847  0.0016 -0.1082  0.2025
    1W        W36311  13.476   7.284   7.510 -0.1534 -0.0688  0.3090
    1W        W36312  18.802   3.308   3.852 -0.1029 -0.1377 -0.1678
    1W        W36313  20.242  12.287   0.383 -0.0052  0.1359  0.0451
    1W        W36314   0.100  16.986   8.040 -0.2132  0.0198  0.0769
    1W        W36315   2.220   0.273   6.660 -0.1150 -0.0831 -0.0960
    1W        W36316  29.119  19.127   6.338 -0.0154 -0.0492 -0.2311
    1W        W36317   7.900  18.702   6.067  0.0065  0.1615 -0.0866
    1W        W36318  17.206   7.883   2.928 -0.3914 -0.0142  0.1314
    1W        W36319   9.380  24.981   0.001  0.1406 -0.3283 -0.1068
    1W        W36320   5.993  21.702   2.635 -0.0319  0.0008 -0.1543
    1W        W36321  20.660   5.061   0.593 -0.0092  0.3256 -0.1958
    1W        W36322   8.001   1.049   2.584  0.0488  0.1393 -0.3642
    1W        W36323   6.639  17.650   8.393  0.1050 -0.1780 -0.0181
    1W        W36324  17.731  19.948   6.985 -0.2624  0.2897 -0.0955
    1W        W36325   5.180  29.331   7.513  0.0396 -0.0852 -0.2028
    1W        W36326   4.698   4.346   7.783 -0.0530 -0.0544  0.1846
    1W        W36327   4.854  28.194   1.842  0.1982 -0.2316  0.0801
    1W        W36328  26.922  14.158   2.411  0.2354 -0.0293 -0.2915
    1W        W36329  20.043   6.141   1.214 -0.1689  0.1140  0.2995
    1W        W36330   1.056  23.514   1.519 -0.2624 -0.1578 -0.0770
    1W        W36331  13.430  13.309   1.451 -0.0183 -0.0112 -0.0268
    1W        W36332  16.450  12.014   8.801  0.1792 -0.0887  0.2821
    1W        W36333   9.518  21.717   8.652  0.0006  0.3664  0.0224
    1W        W36334   0.769   2.821   8.171  0.0651 -0.2123  0.1322
    1W        W36335  18.951  19.891   6.188 -0.2350 -0.0175  0.0167
    1W        W36336   6.557  24.403   8.045 -0.1860 -0.1816 -0.4344
    1W        W36337  10.927  21.272   0.498 -0.0773 -0.1733  0.0367
    1W        W36338   0.891  12.909   8.725  0.1370 -0.0163  0.0014
    1W        W36339   9.196   9.397   7.775 -0.2429 -0.3325 -0.0826
    1W        W36340   8.431  19.462   1.654 -0.0235  0.2794  0.2028
    1W        W36341  23.381  14.950   7.534 -0.0708  0.3800  0.2848
    1W        W36342  22.705  23.289   8.505  0.3761 -0.1826 -0.0721
    1W        W36343  26.742   2.965   2.183  0.0244 -0.0841 -0.1803
    1W        W36344  20.083  15.379   8.357  0.1085  0.0769 -0.2348
    1W        W36345  13.746  25.287   6.201 -0.0048 -0.0105  0.0022
    1W        W36346  17.344  16.173   9.175  0.0214  0.0900  0.1655
    1W        W36347   4.239  27.405   8.597 -0.0156  0.1877 -0.0866
    1W        W36348  20.064  12.889   8.676 -0.0903  0.1740 -0.1396
    1W        W36349  24.625  27.408   8.486  0.0201  0.2429  0.2008
    1W        W36350  10.206  14.376   2.329 -0.2374  0.0039 -0.0937
    1W        W36351  12.938   1.361   9.418  0.2138 -0.1897  0.2879
    1W        W36352  23.293  29.787   0.818  0.1401  0.0628  0.0985
    1W        W36353  29.070  13.354   0.058  0.1227  0.3852  0.0264
    1W        W36354   5.507  19.394   7.278  0.0787  0.1173  0.0745
    1W        W36355   1.577   9.803   0.056 -0.1649 -0.2690 -0.4260
    1W        W36356  17.058   2.445   3.545 -0.0889 -0.2195  0.0822
    1W        W36357  15.184  20.321   7.056 -0.1551 -0.1525  0.0941
    1W        W36358   5.012  28.397   7.368 -0.1761  0.0091 -0.0781
    1W        W36359   4.600  13.587   0.044  0.0138 -0.3016  0.1818
    1W        W36360   4.459   4.605   9.109 -0.3233 -0.0302  0.1816
    1W        W36361   9.196  20.094   8.781 -0.1056 -0.1199  0.3808
    1W        W36362  14.923   6.532   0.071  0.0134  0.0104  0.1606
    1W        W36363  16.425  12.002   9.380 -0.0839 -0.1667  0.0793
    1W        W36364  21.682  16.888   1.340  0.3041 -0.1471  0.0910
    1W        W36365  27.330  27.281   7.964 -0.0288 -0.1111  0.0021
    1W        W36366   6.409   9.512   0.853  0.3761 -0.0637 -0.2469
    1W        W36367  14.137  18.208   6.806 -0.0121 -0.2515 -0.1461
    1W        W36368   1.791  27.143   9.150  0.2022  0.1073 -0.1207
    1W        W36369  17.241   4.015   0.236  0.1469  0.1089  0.1018
    1W        W36370   3.823   8.762   1.749 -0.0834 -0.0235  0.1523
    1W        W36371  18.716  25.496   0.706 -0.0380 -0.0563  0.0229
    1W        W36372   2.165  25.392   5.984 -0.2751  0.1069  0.0304
    1W        W36373  10.715  13.883   7.672  0.1316 -0.2664  0.0801
    1W        W36374  24.905  14.102   9.110  0.3045 -0.1357  0.1715
    1W        W36375  22.843  20.173   7.488  0.0438 -0.1418  0.1086
    1W        W36376  25.076  19.964   3.127 -0.0372  0.3633 -0.2212
    1W        W36377  24.182  21.061   8.338  0.2991  0.0714 -0.0684
    1W        W36378  20.637  11.403   0.054 -0.3749 -0.0549 -0.2684
    1W        W36379  10.706  22.565   9.255 -0.1646  0.1176 -0.0022
    1W        W36380  13.324  22.609   0.594  0.1153  0.0356 -0.0200
    1W        W36381  11.129  19.335   2.296  0.1439  0.2537  0.1307
    1W        W36382  15.684  21.127   8.029 -0.0065 -0.0254 -0.0824
    1W        W36383   2.941  11.576   0.566 -0.0176 -0.1097  0.2607
    1W        W36384  10.412   9.640   6.973  0.1428 -0.2339 -0.2648
    1W        W36385  29.087  12.317   7.898 -0.0145  0.1997  0.0150
    1W        W36386   8.308   6.948   2.721  0.4345 -0.5836  0.2490
    1W        W36387   4.366  17.594   7.010 -0.0746  0.4238  0.0566
    1W        W36388   0.896  28.397   6.645  0.0510  0.0039  0.1335
    1W        W36389  15.399  16.750   9.224  0.0195  0.1238 -0.2974
    1W        W36390   5.413  14.447   0.771 -0.0400 -0.1298  0.0174
    1W        W36391  24.137   9.938   1.615  0.1662  0.1476  0.1499
    1W        W36392  23.425   2.863   0.185 -0.0986  0.2093  0.0609
    1W        W36393  21.320   3.844   3.331  0.0819 -0.3753 -0.0861
    1W        W36394  14.781  25.935   1.230  0.0454 -0.0842  0.0295
    1W        W36395  22.061  15.071   7.942  0.3241 -0.0736  0.1929
    1W        W36396  27.830  27.171   6.502  0.0786  0.2270 -0.0880
    1W        W36397  29.824  11.182   1.303  0.2988  0.2078  0.0679
    1W        W36398   3.589  13.522   6.830  0.0823  0.3681  0.0606
    1W        W36399  13.189  11.229   7.049 -0.0811  0.1972 -0.0780
    1W        W36400   0.910  18.978   8.925 -0.1544 -0.1267  0.1854
    1W        W36401  21.639  16.027   6.451  0.0783  0.3080  0.3210
    1W        W36402   9.578   6.557   2.404  0.0297  0.2450 -0.0823
    1W        W36403  10.541  22.257   0.980  0.1617 -0.0684 -0.0393
    1W        W36404  14.518  24.944   2.260 -0.1658  0.2027  0.1732
    1W        W36405  14.245  10.975   7.712  0.0203  0.0648  0.0209
    1W        W36406  26.167  12.481   2.214 -0.0421 -0.1060  0.0062
    1W        W36407   5.694   9.535   2.000 -0.2353  0.2271 -0.0624
    1W        W36408   8.589  16.074   2.460  0.0654 -0.0574  0.1470
    1W        W36409  20.506   9.969   2.501  0.2093  0.0973  0.3722
    1W        W36410  14.184   0.647   8.642 -0.1405 -0.1170 -0.0214
    1W        W36411  25.885  19.138   5.523  0.1652 -0.3376  0.1464
    1W        W36412  11.186  14.054   8.852 -0.0097 -0.0849  0.3151
    1W        W36413   9.148   7.070   1.143  0.2655  0.0954  0.1658
    1W        W36414  24.128   9.973   7.548  0.0901 -0.2938  0.4505
    1W        W36415  17.564  25.553   1.329  0.1475 -0.2053 -0.0212
    1W        W36416   3.027  23.777   1.122 -0.1918 -0.3953 -0.0519
    1W        W36417   4.883  21.558   0.212  0.2591 -0.1972 -0.0503
    1W        W36418   0.693   9.676   8.550  0.0143  0.1272 -0.0549
    1W        W36419  14.017  14.293   8.565 -0.1115 -0.2028 -0.1821
    1W        W36420  12.646   7.935   2.868  0.0224  0.0824  0.2995
    1W        W36421  14.889  28.593   2.040  0.3482 -0.0693 -0.4008
    1W        W36422  15.598  22.879   1.373  0.2582  0.2614  0.1471
    1W        W36423   8.640   1.776   7.292  0.2368 -0.0047  0.0698
    1W        W36424  28.676  20.323   1.533 -0.0806  0.4566  0.1139
    1W        W36425   3.725   2.475   0.987  0.0134  0.0132  0.0449
    1W        W36426  17.084  17.269   1.414  0.1395  0.0394 -0.0229
    1W        W36427   9.916  15.747   9.373  0.0270  0.0247  0.2135
    1W        W36428  17.424  10.955   1.176  0.5210  0.0375  0.0271
    1W        W36429   9.864  25.493   7.563  0.2029 -0.1258  0.1160
    1W        W36430   0.416  16.429   6.341 -0.1095 -0.2803 -0.3792
    1W        W36431  15.479  15.025   0.048 -0.0420 -0.2219 -0.0420
    1W        W36432  12.088  10.013   7.775  0.0487 -0.0327 -0.2838
    1W        W36433   1.571  28.561   7.294  0.0073  0.2546  0.0395
    1W        W36434  21.710   0.383   8.568 -0.0313 -0.2030 -0.1404
    1W        W36435  16.673  23.607   0.105  0.0091 -0.1786 -0.3848
    1W        W36436   1.839   7.436   1.784  0.2957 -0.0696 -0.1042
    1W        W36437  29.402  12.426   1.036 -0.2384 -0.1107 -0.0290
    1W        W36438   9.000  27.277   0.799  0.2345 -0.0639  0.0597
    1W        W36439  18.408   4.290   4.045  0.2774  0.0229  0.0021
    1W        W36440  27.036  20.948   8.031 -0.1103 -0.1116  0.0359
    1W        W36441  14.350  15.554   9.166  0.5258 -0.0367 -0.0434
    1W        W36442  17.531  12.349   7.970 -0.0201 -0.3846 -0.0444
    1W        W36443   5.917   8.739   8.761 -0.2183 -0.1513 -0.2028
    1W        W36444   2.712   0.416   8.960 -0.1722 -0.0442 -0.1031
    1W        W36445   6.637  18.191   5.996  0.1074  0.2058  0.0087
    1W        W36446  28.357   5.294   0.092 -0.0961 -0.2744  0.2269
    1W        W36447  17.751  23.067   0.977 -0.2329  0.0582  0.0518
    1W        W36448   5.094   2.296   7.751 -0.0704  0.0973  0.0228
    1W        W36449   3.742  18.604   7.941  0.1637  0.2664 -0.2035
    1W        W36450  16.223  22.282   8.694  0.1493  0.1991 -0.1502
    1W        W36451  21.133  10.473   2.241  0.3606  0.4448  0.1785
    1W        W36452  17.960   6.804   0.412  0.1442  0.1000  0.0418
    1W        W36453   7.306  10.185   2.288  0.2284 -0.2618  0.4705
    1W        W36454  17.944  22.248   0.176  0.0825 -0.0451 -0.0386
    1W        W36455  18.622  25.869   9.463 -0.3211 -0.0649  0.1882
    1W        W36456  21.089  15.899   7.486  0.1211  0.1956  0.0533
    1W        W36457   5.451   1.762   0.840  0.1583 -0.2477 -0.0294
    1W        W36458  26.703  10.427   0.848 -0.0441  0.1160 -0.2392
    1W        W36459  29.403  20.551   7.789 -0.2833 -0.1874 -0.0039
    1W        W36460  16.219  24.094   5.279 -0.2197 -0.0860 -0.0634
    1W        W36461  25.738  29.427   9.468 -0.3489  0.0524  0.0372
    1W        W36462  27.655  11.104   6.491  0.1477 -0.0311 -0.2706
    1W        W36463  19.869  17.970   2.340  0.0116  0.4326 -0.1812
    1W        W36464  27.664  17.837   2.130  0.0906 -0.0040 -0.0377
    1W        W36465  25.104  21.879   2.037  0.2368  0.1311 -0.3090
    1W        W36466   4.897  23.540   7.360  0.0174 -0.0462  0.0556
    1W        W36467   6.649   5.313   3.275  0.2314 -0.1611 -0.0246
    1W        W36468   1.077   1.159   0.777 -0.0934 -0.2134  0.0858
    1W        W36469  22.159  28.570   6.594  0.2631 -0.0186  0.1681
    1W        W36470  26.779   7.169   2.233  0.1556 -0.0834  0.3739
    1W        W36471  27.441   9.300   9.042  0.2210  0.1449 -0.0290
    1W        W36472  18.419  17.539   0.355 -0.3113  0.0819  0.3244
    1W        W36473  18.883  14.079   1.478 -0.0777  0.0208  0.0243
    1W        W36474   8.481   3.942   3.486  0.1011 -0.2479 -0.0545
    1W        W36475   6.065  24.446   0.047  0.0778 -0.1840  0.0837
    1W        W36476  25.473   8.309   7.344 -0.1455  0.1767 -0.1072
    1W        W36477   9.241   8.902   2.321 -0.1561 -0.0219  0.0234
    1W        W36478  15.850  25.240   9.160 -0.1301  0.0493  0.0748
    1W        W36479  22.495   6.068   0.075  0.0561  0.1145 -0.1546
    1W        W36480   9.327   7.631   6.756  0.2172 -0.1932 -0.0112
    1W        W36481   9.040   4.115   0.178 -0.0987  0.3428  0.0233
    1W        W36482  15.649   3.652   1.572 -0.1519 -0.2656  0.3788
    1W        W36483  17.663   5.236   9.418 -0.0338 -0.1928  0.0011
    1W        W36484  27.132   8.745   1.983 -0.0856  0.2298 -0.1418
    1W        W36485  22.194  25.614   8.324  0.3543  0.1032  0.0691
    1W        W36486   4.239   8.345   0.355 -0.1055  0.1209 -0.1708
    1W        W36487  22.454   2.690   2.059 -0.3570 -0.2788  0.0869
    1W        W36488   6.676  15.068   8.938 -0.0843  0.0056  0.2326
    1W        W36489  11.586  17.076   2.148 -0.0335  0.0062 -0.0429
    1W        W36490  26.820  27.440   1.163 -0.0777 -0.3312 -0.1643
    1W        W36491  25.905  20.282   1.291  0.2929  0.0033 -0.0502
    1W        W36492  26.176   7.054   3.349 -0.1325 -0.0615 -0.2828
    1W        W36493  20.847   8.102   2.867  0.1183  0.1153 -0.0370
    1W        W36494   1.443   3.166   2.488  0.1330 -0.1864 -0.5017
    1W        W36495  13.473  11.840   1.290 -0.1232  0.1272  0.1107
    1W        W36496   8.773  28.442   0.831  0.0002 -0.1697 -0.2206
    1W        W36497   6.559  25.904   1.695 -0.2068 -0.2446  0.0352
    1W        W36498  29.329   1.676   1.837  0.1595  0.1020 -0.1446
    1W        W36499  17.644  20.221   1.597  0.0553  0.0586 -0.0448
    1W        W36500   6.324  15.045   7.548  0.2720  0.3257  0.1848
    1W        W36501   4.906  17.605   5.973 -0.1962  0.0501 -0.0807
    1W        W36502  28.695  13.892   0.869  0.2128 -0.3010 -0.0704
    1W        W36503  19.687  21.608   1.200 -0.0777 -0.1180 -0.0208
    1W        W36504  11.972  10.988   2.589  0.3038  0.2473 -0.0408
    1W        W36505   6.706  12.056   6.624  0.0123 -0.0574  0.1982
    1W        W36506   6.417   4.598   2.486  0.4666  0.2956  0.0347
    1W        W36507   9.393  15.015   6.736  0.1415 -0.1888  0.1516
    1W        W36508  18.523  26.376   9.313 -0.3736  0.1748  0.0719
    1W        W36509  26.714  24.270   1.716 -0.3189 -0.0333  0.1762
    1W        W36510  12.291   6.242   9.063 -0.0850 -0.0866 -0.2321
    1W        W36511  20.467  25.848   2.548 -0.3154  0.4590  0.1907
    1W        W36512   8.199  21.544   6.609  0.0726 -0.0831 -0.0950
    1W        W36513   9.414  21.843   0.108  0.0788 -0.2364  0.1228
    1W        W36514  10.596  17.011   1.318 -0.0052  0.0247 -0.0689
    1W        W36515  14.665  21.651   9.309 -0.3210  0.0314 -0.0309
    1W        W36516  10.808  24.266   0.878  0.1805 -0.2780  0.2420
    1W        W36517   6.398   0.842   9.528  0.1060 -0.0959 -0.1935
    1W        W36518  22.309  25.251   1.339  0.0701 -0.4484  0.2098
    1W        W36519  24.754   0.717   2.757  0.0585  0.2531  0.2142
    1W        W36520  19.909  24.558   6.021  0.2038  0.1315 -0.1540
    1W        W36521   8.418  13.616   7.718  0.0426 -0.0266 -0.0276
    1W        W36522  16.902  26.754   8.854 -0.3924  0.2509  0.1514
    1W        W36523  23.015   5.761   2.274  0.1189 -0.1942 -0.0525
    1W        W36524  10.823   2.920   6.995 -0.0181 -0.1567  0.0751
    1W        W36525   9.578  17.100   9.152 -0.2752  0.3528  0.2391
    1W        W36526  25.741  21.197   2.025 -0.1855  0.1290  0.1294
    1W        W36527  28.773   5.100   8.531 -0.1024 -0.0510 -0.1199
    1W        W36528  29.246   7.689   6.403 -0.1842  0.2969  0.1313
    1W        W36529  15.280   9.308   2.593 -0.0345  0.0347 -0.0584
    1W        W36530  17.203  24.222   0.488  0.3005 -0.4592 -0.0977
    1W        W36531   1.739  29.807   0.602 -0.3060 -0.3536  0.2135
    1W        W36532   7.593  10.805   9.400  0.0604  0.0099  0.0874
    1W        W36533  16.672  28.582   7.342 -0.1185 -0.1391  0.0013
    1W        W36534   3.388   5.221   1.960  0.1260 -0.0089  0.0337
    1W        W36535  11.923  15.930   7.709  0.1225 -0.0333  0.2144
    1W        W36536  26.901  15.089   6.998 -0.1252 -0.0059  0.2723
    1W        W36537  13.860  27.975   1.893  0.2163 -0.2956  0.0155
    1W        W36538  20.056   2.406   8.743 -0.1716  0.0412 -0.0973
    1W        W36539   0.249  26.966   0.232  0.2298 -0.0122  0.1420
    1W        W36540  27.215  23.625   1.605 -0.0993  0.0295  0.2532
    1W        W36541  10.884  13.123   0.253 -0.0516  0.3080  0.1060
    1W        W36542  19.980  20.824   0.549 -0.3552 -0.0642 -0.0237
    1W        W36543   9.803  25.995   0.236 -0.1539  0.1481 -0.3028
    1W        W36544  22.227  18.045   8.922  0.0442 -0.2042 -0.1458
    1W        W36545  27.752   7.707   8.781 -0.0762  0.2023 -0.0161
    1W        W36546  28.350  26.003   7.671 -0.0044  0.0985  0.2672
    1W        W36547  26.892  26.226   2.988  0.0852 -0.3399  0.2501
    1W        W36548   1.631  22.252   6.773  0.1144  0.2365  0.3035
    1W        W36549   0.644  16.720   8.978 -0.0192  0.1289  0.0576
    1W        W36550   0.628   1.336   6.984 -0.1861 -0.3012  0.2588
    1W        W36551  18.803  23.768   6.585 -0.1081 -0.0014 -0.2124
    1W        W36552   3.622  18.356   7.495  0.0405 -0.0424 -0.3163
    1W        W36553   3.165   6.190   0.594 -0.2054  0.2822  0.1087
    1W        W36554  22.738  20.013   1.760 -0.3026  0.2808  0.0399
    1W        W36555   6.958  28.963   9.125  0.2857  0.1574 -0.1699
    1W        W36556  11.185  10.740   1.482 -0.2199 -0.0049  0.0321
    1W        W36557  15.011   3.402   3.225 -0.2493  0.0029 -0.1081
    1W        W36558   3.484   5.927   6.468  0.2308  0.1112  0.1250
    1W        W36559  19.808  23.479   6.656 -0.1162 -0.0970 -0.3172
    1W        W36560   4.063   0.157   3.023  0.5434 -0.0356 -0.2953
    1W        W36561  24.252   1.042   7.553 -0.1571  0.1858  0.0544
    1W        W36562   6.143  22.799   0.553  0.1425 -0.1034 -0.1438
    1W        W36563   4.864   0.200   7.078  0.1662  0.0694 -0.1186
    1W        W36564  24.209  20.050   1.148 -0.1427 -0.2504  0.3708
    1W        W36565  11.184  14.951   8.444  0.3513 -0.2807  0.0951
    1W        W36566  11.759  17.134   9.389 -0.0636  0.3019 -0.1736
    1W        W36567  27.017   6.107   9.244 -0.4306 -0.0707 -0.0409
    1W        W36568   5.733  24.142   9.262 -0.2559 -0.2278  0.1905
    1W        W36569  29.441  15.976   0.066  0.0356 -0.0929  0.0258
    1W        W36570   1.332  18.342   0.799  0.2048  0.3164  0.0835
    1W        W36571  22.510  12.536   1.550  0.3044  0.1335  0.1070
    1W        W36572   8.859   6.852   6.975  0.4569  0.0564  0.1081
    1W        W36573  25.865  10.210   2.988 -0.1815  0.2141 -0.0304
    1W        W36574  28.716   1.049   0.898  0.2204  0.1344  0.0936
    1W        W36575   7.500  28.313   8.798  0.0956 -0.0589  0.0017
    1W        W36576  24.418  27.847   8.401  0.0023 -0.0200  0.2135
    1W        W36577  19.735  25.147   8.722 -0.2414  0.0572 -0.0314
    1W        W36578  23.201  21.661   8.529 -0.2543 -0.1375  0.0650
    1W        W36579  17.069  11.874   8.683 -0.0194  0.0258 -0.2371
    1W        W36580  18.806  17.616   8.511 -0.0813 -0.2001  0.0208
    1W        W36581  25.764  10.717   0.817 -0.0781  0.0229  0.1437
    1W        W36582   1.920  18.667   8.360 -0.0342  0.1019 -0.1149
    1W        W36583   1.616  11.088   1.688  0.0758 -0.1235  0.1843
    1W        W36584  27.381   3.189   0.404 -0.2146  0.0363  0.1260
    1W        W36585  27.140  13.439   1.888  0.1322  0.0420 -0.1652
    1W        W36586   9.427  18.004   9.147  0.2052  0.2344 -0.1084
    1W        W36587  16.133  15.326   0.811 -0.0182 -0.0842 -0.1093
    1W        W36588  27.734   1.431   8.408 -0.1921  0.3903  0.0586
    1W        W36589  29.198   2.598   2.049  0.2514  0.0068 -0.1023
    1W        W36590  14.587  24.737   9.465 -0.0640 -0.2331 -0.1028
    1W        W36591   2.370  20.951   0.397 -0.0594 -0.2790 -0.0477
    1W        W36592  15.350  22.629   6.919 -0.0815  0.2250 -0.3071
    1W        W36593   3.195   5.121   9.060  0.0618 -0.0393  0.2255
    1W        W36594   5.013  26.908   8.536 -0.1110  0.2142  0.1421
    1W        W36595  26.730  22.439   6.575  0.1621 -0.0042  0.4896
    1W        W36596  15.559   1.498   7.105 -0.3833 -0.0015 -0.0601
    1W        W36597  26.747  20.417   5.937 -0.1325  0.0506  0.0967
    1W        W36598  16.848  24.342   0.874  0.2018  0.1519 -0.2308
    1W        W36599  29.669  12.807   2.412  0.0523  0.0363  0.0924
    1W        W36600  28.601  14.364   8.975 -0.2115 -0.2763  0.2742
    1W        W36601  10.890  25.424   7.705 -0.1034  0.0216  0.2730
    1W        W36602  10.025  22.530   7.745 -0.0185 -0.1770 -0.0060
    1W        W36603   7.981  15.488   8.987 -0.2553  0.3148 -0.1062
    1W        W36604   4.052  23.566   1.517  0.0249  0.0852 -0.0477
    1W        W36605   5.383  20.718   1.159 -0.1172 -0.0193 -0.1755
    1W        W36606  13.370  16.846   8.758 -0.0686 -0.0975  0.1237
    1W        W36607  17.314  27.848   7.098 -0.1106  0.0766 -0.1984
    1W        W36608   1.410  16.668   7.132 -0.0666 -0.1287 -0.0181
    1W        W36609  17.410  23.710   9.389 -0.1706 -0.0105 -0.0275
    1W        W36610   7.960  27.763   9.351 -0.0428 -0.0536 -0.1196
    1W        W36611  28.356  14.179   8.211  0.1790 -0.0931 -0.1105
    1W        W36612  10.268  22.908   7.949 -0.1486 -0.1158  0.2443
    1W        W36613  11.040  20.716   1.203  0.2569  0.1621  0.0458
    1W        W36614   3.964   1.353   7.345 -0.0784 -0.0282 -0.0837
    1W        W36615  24.482   5.486   4.042  0.2317 -0.1122 -0.0509
    1W        W36616  19.394   7.858   8.894 -0.0055 -0.0492 -0.3392
    1W        W36617   5.058   3.486   1.324  0.2286 -0.0795 -0.1797
    1W        W36618   2.557  29.720   1.249  0.1694 -0.3639  0.1169
    1W        W36619   4.176   3.617   7.748 -0.2283  0.1584 -0.1235
    1W        W36620  27.731  16.503   1.912  0.0752  0.0533 -0.1346
    1W        W36621  25.430  14.340   2.083 -0.3572 -0.3725  0.3977
    1W        W36622  22.745  27.752   2.917 -0.3142  0.2959  0.1291
    1W        W36623  24.752  27.969   7.789  0.0477  0.3293  0.2373
    1W        W36624   6.232  19.545   8.522 -0.3745  0.0803 -0.0672
    1W        W36625  29.154   4.228   8.817 -0.0081  0.1561  0.2008
    1W        W36626  13.170  13.502   6.778  0.1354  0.1185 -0.5104
    1W        W36627  26.264  17.127   8.722 -0.0718 -0.0408 -0.0206
    1W        W36628   4.316   8.701   2.542  0.0757 -0.1734  0.0151
    1W        W36629  16.362   0.742   0.732  0.3255 -0.0600 -0.1709
    1W        W36630  23.953  27.629   7.627 -0.0044  0.1673  0.1892
    1W        W36631  23.475  28.200   2.505  0.1537  0.2416 -0.0219
    1W        W36632   3.004  17.338   1.679 -0.0261 -0.0646 -0.1140
    1W        W36633   2.218   2.187   1.765  0.0887  0.1221 -0.1055
    1W        W36634  12.494  22.030   6.868  0.1314 -0.0118  0.0677
    1W        W36635  11.078  25.366   1.839  0.3118  0.1836  0.3407
    1W        W36636  16.728   7.096   3.387 -0.0260 -0.0695  0.1668
    1W        W36637  12.618   5.822   7.538  0.2313  0.0138 -0.0806
    1W        W36638  22.500  15.138   0.417 -0.0517  0.0653 -0.2890
    1W        W36639  18.805  14.950   9.191  0.0857 -0.2017 -0.0357
    1W        W36640  14.112  12.030   7.482 -0.2262  0.0553  0.0965
    1W        W36641  16.525  24.218   5.716  0.0758  0.0746 -0.2433
    1W        W36642   1.306  20.294   1.872 -0.1912  0.1882  0.0632
    1W        W36643   2.991  15.867   1.089 -0.3139  0.2288  0.2048
    1W        W36644   9.799   6.448   8.877 -0.1625  0.2862  0.0533
    1W        W36645  25.743  13.998   1.939  0.0587  0.1930  0.1734
    1W        W36646  24.074   8.060   2.976  0.2699  0.1502 -0.0844
    1W        W36647  18.074   6.337   0.169 -0.2907  0.0524  0.1279
    1W        W36648   3.273   4.227   2.423  0.0248  0.0006  0.2841
    1W        W36649  29.362  19.121   1.719 -0.3239  0.0343 -0.1621
    1W        W36650   5.823   1.760   8.191 -0.0720 -0.1310 -0.2873
    1W        W36651  17.048   2.251   3.046 -0.1319 -0.2486 -0.4446
    1W        W36652  15.592  13.771   2.257 -0.4165 -0.0059  0.0518
    1W        W36653  27.150  14.455   8.734 -0.2898 -0.0331  0.1025
    1W        W36654   2.613   2.780   8.067  0.0358  0.2081 -0.3235
    1W        W36655   6.533   5.415   8.490  0.4438 -0.0768  0.0851
    1W        W36656  22.100  26.863   0.623  0.1523 -0.2096 -0.0422
    1W        W36657  24.198  21.907   6.778 -0.0120 -0.1496 -0.1233
    1W        W36658  11.984   7.340   1.589 -0.2549 -0.0642  0.1491
    1W        W36659   0.793  13.449   0.618 -0.1262  0.2464 -0.4401
    1W        W36660  18.532  27.396   0.954 -0.0536  0.1133  0.1635
    1W        W36661  10.212  18.323   1.092 -0.0268  0.0073  0.6658
    1W        W36662  12.799  16.804   7.161 -0.0359 -0.2164  0.0181
    1W        W36663  21.011  15.464   8.210  0.0637  0.0975 -0.1144
    1W        W36664  13.600  16.555   1.153 -0.0361 -0.1334 -0.2002
    1W        W36665  15.814  14.721   1.476 -0.2581 -0.0224  0.1213
    1W        W36666  15.902  19.060   8.725  0.1851  0.1235 -0.2108
    1W        W36667  17.539   7.813   8.737 -0.1300 -0.0577 -0.1860
    1W        W36668   3.780  13.101   6.114  0.1505  0.2858  0.0881
    1W        W36669  20.676   4.966   2.280 -0.0811 -0.0444  0.1358
    1W        W36670   1.891  26.566   1.995  0.1972  0.1665 -0.1633
    1W        W36671  18.272  16.523   0.758 -0.2076 -0.1952  0.1988
    1W        W36672   8.772  13.770   5.838 -0.1787  0.0883  0.0494
    1W        W36673  11.036  29.794   9.438  0.0722  0.0972 -0.2210
    1W        W36674  28.450   7.384   8.661  0.0308  0.2624 -0.1243
    1W        W36675  11.169  28.225   8.177 -0.0377  0.2473  0.0828
    1W        W36676   9.879  29.347   2.103  0.3869  0.1629 -0.1914
    1W        W36677  25.985  18.491   1.725 -0.0175  0.0276 -0.0584
    1W        W36678  16.484  13.337   9.073 -0.3236  0.1094 -0.0868
    1W        W36679  25.532  19.116   8.103  0.0018 -0.0840 -0.1691
    1W        W36680   5.699  29.576   6.774  0.1610 -0.0975 -0.1796
    1W        W36681  16.385  20.132   6.505  0.0061 -0.1624  0.0631
    1W        W36682   7.605   6.631   1.082 -0.0755  0.1404  0.0627
    1W        W36683  22.199  18.342   7.068 -0.0303 -0.1627  0.3006
    1W        W36684  13.454  15.501   0.100 -0.0128  0.2181  0.0423
    1W        W36685   6.564  18.901   6.651 -0.3983  0.0926  0.1660
    1W        W36686   6.440  12.789   1.237 -0.1665 -0.0231  0.1188
    1W        W36687   3.536   4.172   9.230  0.0649  0.1403  0.2516
    1W        W36688   7.315  18.460   8.677  0.1666  0.2978  0.2347
    1W        W36689   8.373  22.361   2.015 -0.1564 -0.1990  0.0598
    1W        W36690   6.476  13.479   1.927  0.1970  0.1111 -0.3925
    1W        W36691  13.742  22.544   8.535  0.0705 -0.2604 -0.2040
    1W        W36692  22.970  28.675   8.276  0.1294  0.2201  0.0378
    1W        W36693   8.216  17.953   1.696 -0.0048  0.0417  0.0864
    1W        W36694  26.846  23.900   6.958  0.0837 -0.0256 -0.0455
    1W        W36695   7.814  25.938   2.165 -0.0474 -0.0895 -0.0961
    1W        W36696  12.766   3.175   1.012 -0.1903  0.0596  0.2054
    1W        W36697  19.115  16.376   0.745 -0.0576  0.3524 -0.1767
    1W        W36698  11.548  22.585   4.910 -0.2785  0.4065 -0.1542
    1W        W36699   1.668  24.846   8.589 -0.0058 -0.2869 -0.0622
    1W        W36700   1.694   4.363   2.123  0.2636  0.2374  0.1765
    1W        W36701  11.544  11.756   1.388 -0.0437 -0.1801 -0.2270
    1W        W36702   9.847   2.644   0.629 -0.2986 -0.0691  0.1035
    1W        W36703   6.344  15.731   0.782  0.0331 -0.0043  0.1907
    1W        W36704  25.586  28.338   2.578  0.1113 -0.0216  0.0406
    1W        W36705  28.861  14.646   8.020  0.3531  0.1644  0.2474
    1W        W36706  22.846   2.620   1.653  0.0233  0.1831 -0.0476
    1W        W36707  25.454  28.511   0.937 -0.0547  0.2471 -0.0325
    1W        W36708  25.005  17.254   0.428  0.0192 -0.1632  0.4338
    1W        W36709  10.575   3.188   0.568 -0.0752  0.0106 -0.1386
    1W        W36710  15.077  20.947   0.266  0.0032 -0.0411  0.1545
    1W        W36711   6.784   8.955   7.841 -0.2642 -0.0133 -0.0758
    1W        W36712   3.301   3.020   2.526 -0.0584  0.0508  0.0223
    1W        W36713  27.628  13.354   1.869 -0.2146  0.1271 -0.1217
    1W        W36714  22.585  10.389   8.590 -0.0313 -0.2281  0.0045
    1W        W36715  17.272   8.632   1.238 -0.1001  0.0593 -0.2939
    1W        W36716  13.944  23.983   5.977 -0.0481  0.3685 -0.0764
    1W        W36717  12.107  22.228   5.811 -0.3832  0.1246  0.2759
    1W        W36718  16.154  21.931   5.520 -0.0222  0.0056 -0.1225
    1W        W36719  27.770  21.598   8.852  0.2473 -0.2240 -0.1609
    1W        W36720  28.503  13.655   0.033 -0.2167  0.0349 -0.1555
    1W        W36721   4.706   6.175   9.103 -0.0617  0.2504  0.1263
    1W        W36722  12.434  17.102   8.990  0.5320  0.1105 -0.0800
    1W        W36723  17.133  18.906   0.463  0.1048  0.0237  0.3213
    1W        W36724   6.999   8.538   9.402  0.3360 -0.1983  0.0530
    1W        W36725   7.819  15.431   7.606 -0.0371 -0.1365  0.1029
    1W        W36726  11.409  17.534   6.618  0.1084 -0.1086 -0.0412
    1W        W36727  20.461  10.785   9.358  0.2765 -0.0851  0.4138
    1W        W36728  26.565  21.340   0.613  0.1357 -0.2957 -0.0907
    1W        W36729  20.476   3.384   3.625 -0.1857 -0.2131 -0.0836
    1W        W36730  11.786  24.032   0.677  0.1120  0.1810 -0.0152
    1W        W36731   6.808  28.094   9.361  0.3192  0.1272  0.5193
    1W        W36732   7.771   5.519   1.964  0.3507  0.1980 -0.1881
    1W        W36733  27.793   3.044   2.513 -0.0198 -0.2924 -0.0121
    1W        W36734  13.643   9.348   8.177 -0.0683 -0.0671 -0.3135
    1W        W36735  15.738   9.692   2.142 -0.1353  0.2945  0.3020
    1W        W36736   1.649   4.048   7.727  0.0228 -0.1596  0.2125
    1W        W36737   7.703  20.684   1.525 -0.1735 -0.0709  0.1020
    1W        W36738  29.420   3.909   2.308  0.0039  0.1355  0.0782
    1W        W36739   7.468  22.791   0.931  0.4457 -0.0586  0.1298
    1W        W36740   9.680  18.466   9.439  0.1243 -0.3913  0.1583
    1W        W36741  27.372  11.139   2.106  0.3973  0.1450  0.4025
    1W        W36742  22.729  11.977   8.648 -0.1855 -0.0929 -0.2383
    1W        W36743   7.082   7.103   7.982  0.0022 -0.0224 -0.1558
    1W        W36744   7.957  19.176   1.634  0.1207  0.3807 -0.3828
    1W        W36745  22.652  27.673   0.278 -0.0218 -0.2535  0.0613
    1W        W36746  28.772   9.595   8.904  0.1801  0.2135  0.2569
    1W        W36747  16.828   2.874   9.045  0.1011 -0.0259 -0.1449
    1W        W36748  18.801  15.376   1.051  0.0780 -0.1795  0.0115
    1W        W36749  12.587   8.886   1.458 -0.0320  0.2032 -0.1507
    1W        W36750   5.387   0.052   5.641  0.0665 -0.1760 -0.0693
    1W        W36751  28.732  22.047   8.350 -0.3083 -0.2960  0.0942
    1W        W36752  22.496  19.424   1.621 -0.0045  0.0409 -0.0625
    1W        W36753   7.995  29.664   1.850  0.2303 -0.0877  0.1500
    1W        W36754  23.982  12.766   9.525  0.2224  0.0401  0.0070
    1W        W36755  15.201   1.594   8.203 -0.0462 -0.0092  0.0626
    1W        W36756  19.536  27.676   1.326 -0.3863 -0.2664 -0.0761
    1W        W36757  24.353   2.600   0.989  0.2467 -0.1928 -0.0478
    1W        W36758   3.456  28.350   5.996  0.1420  0.1892  0.1282
    1W        W36759  11.243   0.017   7.949  0.2343 -0.1717  0.0021
    1W        W36760  24.839  20.536   2.962  0.1320 -0.0359  0.2241
    1W        W36761  13.665  13.291   6.959  0.1953  0.2208  0.1183
    1W        W36762  15.008  27.464   0.368  0.0137  0.2921 -0.0544
    1W        W36763  19.570  24.985   6.455  0.1473  0.1937 -0.3338
    1W        W36764   5.441   9.887   0.510 -0.0822  0.1096  0.2645
    1W        W36765  13.748  24.846   5.522  0.2469  0.1408  0.3153
    1W        W36766   9.686   6.084   2.931  0.0746 -0.2623 -0.2588
    1W        W36767  16.695   0.484   0.485 -0.0083  0.3550  0.0716
    1W        W36768   6.786   3.347   7.262 -0.0312  0.0032 -0.0319
    1W        W36769   6.438  26.932   1.889 -0.4059 -0.2173  0.0766
    1W        W36770   1.989  13.361   8.671 -0.0156 -0.0357 -0.0649
    1W        W36771  14.428   8.031   1.552  0.2412  0.1353  0.3336
    1W        W36772   7.753  27.372   6.941 -0.1379  0.0319  0.0569
    1W        W36773  17.180  14.348   1.291  0.2046  0.1073 -0.0920
    1W        W36774   7.812   9.317   1.203 -0.0427  0.2782  0.0401
    1W        W36775  15.337   3.108   3.022  0.1069 -0.3056  0.1449
    1W        W36776  16.061  17.851   6.512  0.1230  0.1495 -0.0354
    1W        W36777  15.421  11.100   9.069 -0.0530 -0.0683 -0.0962
    1W        W36778  15.815   7.977   3.328 -0.3343  0.0437 -0.1202
    1W        W36779   8.715   9.556   7.008  0.2055  0.1090  0.0084
    1W        W36780  21.700  16.617   2.307 -0.1651 -0.2205  0.3521
    1W        W36781  12.097  20.622   0.447 -0.0904  0.1749 -0.2299
    1W        W36782   9.754   2.304   3.386  0.1224  0.1261 -0.3233
    1W        W36783   0.006  26.228   7.277 -0.2150 -0.3570 -0.0830
    1W        W36784   9.080   3.635   3.071 -0.0204  0.2557  0.1525
    1W        W36785  21.395  12.492   2.128 -0.1365  0.1087 -0.3173
    1W        W36786  18.359  10.965   7.677 -0.2470 -0.1424  0.0150
    1W        W36787  12.794  15.311   6.749  0.0292 -0.3376  0.0974
    1W        W36788   7.478  16.499   8.153 -0.1698  0.1465 -0.0479
    1W        W36789   8.186   7.326   1.899  0.0615 -0.0257  0.4223
    1W        W36790   2.565  23.303   9.470 -0.0321  0.0733 -0.0963
    1W        W36791  25.224  18.520   8.181  0.1417 -0.2077 -0.3530
    1W        W36792   2.129   7.177   7.112 -0.0305 -0.2690 -0.5026
    1W        W36793  21.325  15.109   9.439  0.1469  0.0360 -0.0339
    1W        W36794  25.937   2.392   0.399  0.1086  0.0775 -0.1633
    1W        W36795  13.678  26.572   6.468 -0.2612 -0.1165 -0.0795
    1W        W36796  10.479  18.387   8.285 -0.3024 -0.0563 -0.0837
    1W        W36797  11.115  18.833   6.706  0.2051 -0.0312  0.0313
    1W        W36798   3.168   0.158   7.062 -0.2965  0.0515 -0.1401
    1W        W36799   9.039   8.761   1.820  0.0197  0.1263 -0.0280
    1W        W36800   4.083  19.617   8.941 -0.0502  0.0944 -0.0901
    1W        W36801  27.420   1.262   1.095  0.0460 -0.1435  0.3060
    1W        W36802   4.055  26.582   7.691  0.1630 -0.0365 -0.0844
    1W        W36803   2.964  25.245   6.780  0.2127 -0.2513 -0.2192
    1W        W36804   8.460   3.479   1.260 -0.0882 -0.0667  0.0925
    1W        W36805   9.923   7.933   6.459 -0.2307  0.1410  0.0272
    1W        W36806  27.088  23.448   6.976  0.2127  0.0273 -0.2043
    1W        W36807  15.213  27.594   8.432 -0.1369 -0.0799  0.0575
    1W        W36808  14.999  10.981   0.935 -0.0598 -0.2335  0.2692
    1W        W36809  16.717  20.911   7.163  0.1657  0.2653 -0.0097
    1W        W36810  13.025   6.695   8.215  0.2193 -0.0583  0.0421
    1W        W36811   8.079  29.742   0.770 -0.0442  0.0993  0.0580
    1W        W36812  12.709  26.809   7.199 -0.3084  0.0657 -0.0073
    1W        W36813  18.629  25.067   1.679  0.0755 -0.2127 -0.1923
    1W        W36814  20.833   1.626   0.840 -0.1527 -0.1252  0.1887
    1W        W36815  12.163  18.865   6.222 -0.1185  0.0121 -0.2114
    1W        W36816  23.467  25.753   0.441  0.0177  0.0363 -0.3758
    1W        W36817  20.289  15.930   7.703 -0.0811 -0.0695 -0.0547
    1W        W36818   6.333   9.081   1.807 -0.2909 -0.0280 -0.3251
    1W        W36819  26.928   6.554   7.940 -0.3201  0.0408 -0.0981
    1W        W36820  24.569  27.649   0.261 -0.2639  0.4110 -0.0440
    1W        W36821   1.435  27.160   8.291 -0.1380  0.2078  0.0032
    1W        W36822  17.920   4.525   9.103  0.0742 -0.1275 -0.0193
    1W        W36823  21.930  17.732   9.497 -0.3996 -0.0885 -0.2799
    1W        W36824  10.265  17.637   8.680 -0.2026 -0.1399 -0.1314
    1W        W36825  27.868  11.904   9.204 -0.0423 -0.0279 -0.0216
    1W        W36826   8.113   4.927   8.244  0.0957 -0.2132 -0.1324
    1W        W36827   3.562  18.557   1.858 -0.0837 -0.1629  0.0583
    1W        W36828  12.973   3.515   7.629  0.4264 -0.0859 -0.2097
    1W        W36829  25.211   1.378   7.464  0.1279  0.1046  0.0491
    1W        W36830   6.698  27.861   0.609  0.0622  0.0945 -0.0465
    1W        W36831  19.947   5.243   3.642  0.0389  0.2779 -0.0864
    1W        W36832  11.815  18.571   2.337  0.1495 -0.2117  0.0017
    1W        W36833   8.543  27.245   6.695  0.1298  0.0224 -0.2423
    1W        W36834  25.912  13.875   2.431 -0.3212  0.0980  0.1415
    1W        W36835  21.912  23.411   0.643  0.1290 -0.0855  0.2105
    1W        W36836  18.166  27.110   1.854  0.0017  0.2450 -0.0564
    1W        W36837   2.097   4.276   6.373  0.3833  0.4404  0.0672
    1W        W36838   9.998   8.982   0.694 -0.0035  0.1322 -0.0645
    1W        W36839  21.638   3.162   7.781  0.1065  0.1939  0.1354
    1W        W36840  11.040   3.092   3.190  0.1770  0.2184 -0.1673
    1W        W36841   3.248  10.487   6.554  0.0742 -0.0072 -0.0461
    1W        W36842   5.621  21.359   2.526  0.3118 -0.0737  0.0079
    1W        W36843  29.305   9.388   9.150 -0.3738  0.0847 -0.1001
    1W        W36844  28.117   9.204   7.763 -0.5625 -0.1555 -0.1785
    1W        W36845  15.668  22.509   8.418  0.3691  0.2861  0.1760
    1W        W36846  16.121  11.040   0.278 -0.2016 -0.2244 -0.1472
    1W        W36847   4.505  23.885   8.240 -0.0092  0.1023 -0.1908
    1W        W36848   8.619  23.542   6.190  0.0883 -0.1165 -0.0361
    1W        W36849  23.975  23.164   9.408  0.4176 -0.1498 -0.1694
    1W        W36850   0.355   7.877   8.258 -0.1331  0.2223 -0.2448
    1W        W36851  28.789   6.180   7.126 -0.1772 -0.1774 -0.1728
    1W        W36852   4.245   4.456   8.167  0.1155 -0.1034  0.1145
    1W        W36853   6.403   7.236   6.778  0.1629  0.1095  0.1161
    1W        W36854  25.434   9.033   1.247  0.0969 -0.3102 -0.2259
    1W        W36855  12.898   9.626   2.930  0.1616  0.2569  0.1768
    1W        W36856   3.583   3.417   2.274 -0.0108  0.1203 -0.0774
    1W        W36857  18.503  23.617   1.424  0.0576  0.0919 -0.1343
    1W        W36858  27.631  29.767   0.890 -0.1167 -0.2138  0.0541
    1W        W36859  13.264  19.137   9.520 -0.0738  0.1046  0.1616
    1W        W36860  16.742   7.376   0.339  0.2432  0.1042  0.3286
    1W        W36861  18.877   6.319   9.110 -0.1336 -0.1122 -0.2535
    1W        W36862  19.911  11.885   0.216 -0.1917 -0.1045 -0.0043
    1W        W36863  25.876  17.327   9.479  0.2630 -0.1624  0.0860
    1W        W36864  29.009  27.214   0.940  0.0436 -0.3099  0.0088
    1W        W36865   5.400  25.992   8.651  0.0313 -0.0756  0.1215
    1W        W36866  25.885  22.470   1.495  0.3000  0.3332  0.0145
    1W        W36867   1.384  13.005   6.836  0.0660  0.0830  0.2194
    1W        W36868  27.551  14.952   6.500 -0.0260 -0.1879  0.1813
    1W        W36869   0.055  19.667   0.935  0.1531  0.0211 -0.0287
    1W        W36870  11.938   6.680   1.821 -0.0614 -0.2831  0.1859
    1W        W36871  27.964  15.385   1.346 -0.2751  0.0113  0.0530
    1W        W36872  13.950   5.050   2.403 -0.0223 -0.0357 -0.2138
    1W        W36873   3.325   1.149   7.667 -0.0225 -0.2468 -0.0184
    1W        W36874   5.562   1.869   7.026 -0.0368  0.0217 -0.0777
    1W        W36875   1.346  24.514   9.511 -0.1769 -0.3122  0.1581
    1W        W36876   3.605  10.845   0.478 -0.2236 -0.0743 -0.1594
    1W        W36877  12.374  24.430   6.590 -0.0586  0.0711 -0.1488
    1W        W36878  18.504   6.797   2.170 -0.0919  0.2021 -0.1010
    1W        W36879  15.733  27.420   1.960  0.0743  0.1909  0.3278
    1W        W36880  24.566  19.797   9.176  0.1097  0.0406  0.0111
    1W        W36881  25.284  11.418   7.474  0.3663 -0.0938 -0.0977
    1W        W36882   0.615   2.400   9.042  0.1230  0.0117  0.0524
    1W        W36883  25.571   5.985   9.113  0.1140 -0.1796 -0.0199
    1W        W36884   4.600  21.094   8.149 -0.0719  0.1052 -0.1794
    1W        W36885  27.192   6.172   8.154  0.1046 -0.0574 -0.1154
    1W        W36886  28.758  18.447   0.580 -0.3818  0.0411  0.1818
    1W        W36887  19.124  15.133   6.762 -0.0105  0.1692  0.1314
    1W        W36888  18.153  22.681   8.899  0.0253 -0.0037 -0.2897
    1W        W36889  19.113  15.848   8.244 -0.1059  0.2014 -0.1036
    1W        W36890  12.481  25.789   7.096  0.0096 -0.0439 -0.0083
    1W        W36891   5.771  13.446   6.497  0.0892  0.1072 -0.2924
    1W        W36892   7.076  24.603   5.466  0.2995 -0.3351  0.0913
    1W        W36893   5.522   3.158   7.869 -0.3021 -0.0569  0.3330
    1W        W36894   2.001  28.745   7.643  0.0544  0.1589  0.1216
    1W        W36895  20.602   4.503   0.755 -0.1225  0.0279 -0.1015
    1W        W36896  20.727  10.697   1.991  0.0257  0.1501 -0.1058
    1W        W36897  17.464   3.855   1.111  0.1607  0.0493 -0.0518
    1W        W36898  25.389  22.220   8.873 -0.1008 -0.0057 -0.1338
    1W        W36899  28.426   9.641   0.301 -0.0164  0.1078 -0.0752
    1W        W36900   0.889  29.677   0.688 -0.0732  0.0154 -0.2238
    1W        W36901   5.659   6.423   0.724 -0.0114  0.0787  0.1415
    1W        W36902  26.167  19.497   1.575 -0.0395 -0.0100  0.4479
    1W        W36903  12.115  23.940   7.992 -0.0143 -0.2176 -0.0802
    1W        W36904  12.197  17.513   8.215 -0.0727  0.0366  0.1174
    1W        W36905  13.774  15.071   7.065  0.3513  0.1317  0.1384
    1W        W36906   7.502  19.078   7.089 -0.2847 -0.0486 -0.3058
    1W        W36907  27.069  26.481   8.678  0.1576  0.0954 -0.2901
    1W        W36908   9.709   3.198   0.775 -0.1440  0.1994 -0.0362
    1W        W36909   7.486  28.988   9.040  0.2575  0.0627  0.3416
    1W        W36910  21.260  12.721   8.667  0.0577  0.0521 -0.0192
    1W        W36911  18.767  15.208   7.482  0.0117  0.0602 -0.1595
    1W        W36912  11.701  17.025   6.347 -0.0083 -0.2701 -0.0736
    1W        W36913  29.058   1.179   9.098 -0.1318 -0.0652 -0.1422
    1W        W36914   4.509  18.077   0.963  0.1867 -0.3883  0.3928
    1W        W36915  29.508  18.601   8.059  0.0692  0.2006 -0.0010
    1W        W36916   1.467   3.819   9.421  0.3734  0.4141  0.4864
    1W        W36917   0.991  28.719   0.247 -0.0855  0.0680  0.0483
    1W        W36918  25.604  28.025   0.984 -0.1209  0.2289  0.0591
    1W        W36919  10.891  11.266   2.602 -0.0551  0.4000 -0.1394
    1W        W36920  26.421   8.884   8.692  0.2860 -0.0366  0.1420
    1W        W36921  23.023  28.798   2.992 -0.0134 -0.0731  0.2852
    1W        W36922  11.264   7.392   8.584 -0.0582 -0.0273  0.1571
    1W        W36923  26.975  17.935   1.642  0.3693 -0.0598 -0.3588
    1W        W36924   1.736   4.923   8.024  0.1087 -0.0637  0.2566
    1W        W36925  23.293  23.785   8.207 -0.0640 -0.3297 -0.2526
    1W        W36926  22.341   7.168   8.553  0.0205 -0.5433 -0.1562
    1W        W36927   3.248  15.091   9.399  0.0019 -0.1471 -0.2410
    1W        W36928  13.952   2.381   0.377  0.3547  0.3575  0.1939
    1W        W36929   8.550   6.223   8.930 -0.3011  0.0073 -0.0559
    1W        W36930  13.465   1.431   0.427 -0.2337 -0.0461 -0.0978
    1W        W36931  22.817   5.403   1.844  0.2126  0.2617  0.0316
    1W        W36932  16.805  24.191   6.146 -0.0873  0.1804  0.0338
    1W        W36933   1.806  29.338   0.435 -0.1234 -0.0094 -0.0524
    1W        W36934   4.255   4.370   0.135  0.2388  0.2143 -0.2792
    1W        W36935   7.489   2.081   3.155 -0.0255 -0.1053 -0.1902
    1W        W36936  21.920   7.182   1.916 -0.0430 -0.1373 -0.1672
    1W        W36937   5.211  15.575   9.382  0.1689  0.1880  0.0211
    1W        W36938   7.915   1.324   3.012  0.0430 -0.2214  0.0707
    1W        W36939   4.969  25.436   7.955  0.0932  0.0995  0.1630
    1W        W36940  14.546   3.785   1.240  0.2838 -0.1779 -0.2719
    1W        W36941   2.157  23.713   8.037  0.0086  0.0616  0.0145
    1W        W36942   1.152  13.169   7.193 -0.0993  0.2045 -0.0974
    1W        W36943  17.342   5.040   0.192 -0.1606  0.2134 -0.3130
    1W        W36944  23.741  17.254   8.555 -0.2152 -0.0808  0.0144
    1W        W36945  16.191   4.966   2.470  0.0024  0.0649 -0.0469
    1W        W36946  15.024  19.509   1.466  0.0398 -0.0752 -0.3780
    1W        W36947   2.356  22.777   5.984 -0.0794 -0.0034  0.1700
    1W        W36948  15.551  20.268   0.605  0.1091  0.2326 -0.1279
    1W        W36949  15.809   6.946   9.014  0.2473 -0.0033  0.0996
    1W        W36950  10.141  12.434   1.123  0.0717 -0.3064 -0.1038
    1W        W36951  20.188  22.311   1.051  0.1681  0.1111 -0.1277
    1W        W36952  16.862   8.782   9.528  0.2840  0.0986 -0.1219
    1W        W36953  27.429   3.586   3.432  0.1047 -0.1030 -0.1112
    1W        W36954   8.032   7.086   1.038 -0.0887  0.0578  0.0659
    1W        W36955  18.949  22.750   0.929 -0.2383  0.1168  0.2368
    1W        W36956   1.450  14.670   2.875  0.1378 -0.0797  0.0240
    1W        W36957  27.564  27.737   1.815 -0.3708  0.0732 -0.2348
    1W        W36958  26.519  18.551   6.059 -0.0532  0.0170  0.3755
    1W        W36959  26.787  23.414   1.549  0.0969  0.2543 -0.4335
    1W        W36960  27.606   0.710   0.344 -0.2146 -0.2887  0.2885
    1W        W36961   2.773  26.120   8.188  0.0541 -0.0480 -0.0478
    1W        W36962   0.330   4.802   1.903 -0.3971  0.1756  0.3630
    1W        W36963  14.784  13.646   0.098 -0.1616  0.0177 -0.0409
    1W        W36964   8.424  18.152   6.532 -0.0093  0.0549 -0.3749
    1W        W36965   5.694  15.675   9.314  0.1109 -0.0033  0.2316
    1W        W36966  25.826  28.895   0.181 -0.0309  0.0006 -0.2358
    1W        W36967  14.079  27.712   9.244  0.3045  0.1075  0.2061
    1W        W36968  18.156  28.833   0.318  0.0702  0.0929 -0.1750
    1W        W36969  22.347   0.934   1.583  0.2239  0.3027 -0.1501
    1W        W36970  14.713  25.916   8.178  0.0082 -0.1217  0.0609
    1W        W36971  29.000  17.251   0.639  0.1257  0.0965 -0.2321
    1W        W36972  27.567  19.172   7.567  0.1715  0.1019 -0.2007
    1W        W36973   8.542   2.227   1.031 -0.0027 -0.1194 -0.1193
    1W        W36974  19.296  11.377   7.664  0.0115 -0.2634 -0.0261
    1W        W36975   2.333  16.096   8.103  0.0894 -0.0281  0.1005
    1W        W36976   5.841  25.995   7.329 -0.1819  0.1434 -0.0426
    1W        W36977  18.664  15.736   8.600 -0.2924 -0.1123  0.0474
    1W        W36978  18.541  24.695   7.486 -0.1835  0.0261  0.0646
    1W        W36979  28.606  11.742   2.525 -0.0679  0.0910  0.2277
    1W        W36980  27.586   6.136   7.804 -0.0873 -0.2052  0.2087
    1W        W36981   2.585  24.135   1.036  0.1570  0.1567 -0.0453
    1W        W36982   7.095   4.377   2.944 -0.0687 -0.1037  0.1288
    1W        W36983  23.157  21.777   9.050 -0.2168  0.0204 -0.1420
    1W        W36984  17.143  10.948   1.653 -0.1039  0.0928 -0.0475
    1W        W36985  15.432  18.192   7.258 -0.0819  0.0585 -0.1084
    1W        W36986  14.056  17.998   7.321 -0.1881  0.1155 -0.2263
    1W        W36987  10.442  19.238   1.171  0.1806 -0.1874  0.2500
    1W        W36988   0.551   6.499   2.370 -0.1669  0.1633  0.2440
    1W        W36989   7.397   6.870   2.897 -0.0511  0.2029 -0.2185
    1W        W36990  14.237   5.492   0.159 -0.0002 -0.0360 -0.2540
    1W        W36991   0.654   7.066   8.800 -0.1027  0.0402  0.1221
    1W        W36992  18.627   0.197   8.693  0.1941  0.0266 -0.1816
    1W        W36993  10.608   2.175   1.033 -0.0038 -0.0629 -0.0698
    1W        W36994   0.040   2.371   8.680 -0.0803  0.0843  0.1611
    1W        W36995  24.618  16.568   2.091 -0.0086 -0.2335 -0.0446
    1W        W36996  21.155  15.866   6.534 -0.1414  0.0133 -0.1587
    1W        W36997   2.863   7.433   7.794 -0.4547 -0.0258 -0.1075
    1W        W36998  14.312  14.489   1.353  0.0498  0.0065  0.0270
    1W        W36999  15.858  15.556   6.808  0.1701 -0.0901 -0.0747
    1W        W37000  13.950  23.992   0.497 -0.0273  0.2346 -0.1362
    1W        W37001  13.472   1.846   8.965  0.1891  0.0221  0.1508
    1W        W37002   4.796  17.033   8.480  0.1227  0.0961  0.2233
    1W        W37003   7.714   2.524   1.961  0.2769  0.0199  0.0236
    1W        W37004  28.376   5.643   2.724 -0.0355 -0.0785 -0.0702
    1W        W37005  25.284  19.607   8.048 -0.0668  0.2608 -0.2621
    1W        W37006   7.068  25.419   1.250 -0.1144  0.2256  0.1132
    1W        W37007  24.213  11.358   8.530 -0.1074  0.0274 -0.3193
    1W        W37008   4.435  17.965   1.944 -0.1085 -0.0030  0.1920
    1W        W37009  25.357  27.342   9.270  0.1673  0.0907  0.2245
    1W        W37010  21.250   1.814   1.088  0.0949 -0.0404 -0.4605
    1W        W37011  15.335  21.622   6.201  0.1959  0.3049  0.1374
    1W        W37012   5.442  28.555   8.719 -0.0097 -0.0938  0.0504
    1W        W37013  29.159  16.073   6.826  0.2075 -0.1823  0.1205
    1W        W37014  26.254   8.392   6.980  0.0850  0.3366  0.0084
    1W        W37015   3.970   3.162   8.693 -0.1109  0.0208 -0.1228
    1W        W37016  23.013  23.158   1.446  0.0407  0.1750  0.0508
    1W        W37017  18.668  27.965   8.635  0.1499 -0.1429 -0.1009
    1W        W37018  13.209  10.743   8.868  0.1232  0.1543 -0.1401
    1W        W37019   0.246   1.900   0.700 -0.2236  0.1472 -0.3497
    1W        W37020  10.436  28.542   7.719 -0.3510  0.2248  0.0236
    1W        W37021  27.362   7.896   8.125  0.1785  0.1662 -0.0290
    1W        W37022  11.671  29.843   2.376 -0.0393  0.2774 -0.2429
    1W        W37023  19.360  13.111   0.772  0.3106 -0.0494 -0.2593
    1W        W37024  17.157  28.675   3.134 -0.0236 -0.2498 -0.1421
    1W        W37025   0.867   8.631   6.641  0.1351 -0.0665 -0.3120
    1W        W37026  18.732  19.397   8.471  0.0277  0.3102  0.0009
    1W        W37027  26.108  19.864   8.983  0.2194  0.2384  0.0299
    1W        W37028  24.848  20.480   0.302  0.0779  0.1813  0.0745
    1W        W37029  26.962  11.998   0.982  0.3464  0.2017 -0.3059
    1W        W37030  24.674  13.009   8.329  0.2237  0.1117  0.0601
    1W        W37031  24.362  12.693   1.329  0.0176  0.2528  0.0098
    1W        W37032  24.027  18.267   7.333 -0.1375  0.0781  0.1554
    1W        W37033  21.773  24.094   1.241  0.0185  0.0165 -0.0531
    1W        W37034   7.869  25.301   7.439 -0.2274 -0.2837  0.0123
    1W        W37035  28.427  24.896   1.225 -0.2064  0.1015  0.3430
    1W        W37036   2.120   7.668   1.247 -0.1650  0.1933  0.0744
    1W        W37037  15.896   5.663   8.948  0.1920 -0.2522  0.2671
    1W        W37038   2.462  12.203   1.229  0.2955  0.0639 -0.0656
    1W        W37039   8.977   2.007   3.882 -0.0648 -0.0471 -0.2822
    1W        W37040  14.116   2.780   8.627  0.2655 -0.0736  0.1779
    1W        W37041  13.270  22.726   8.272 -0.2866 -0.2723 -0.0680
    1W        W37042   3.686  22.969   9.237  0.1545  0.1952  0.4777
    1W        W37043  27.648   6.213   0.008  0.0005  0.4714 -0.2157
    1W        W37044   4.392   2.867   7.897 -0.1776 -0.0813  0.1395
    1W        W37045   8.442  25.445   6.652 -0.0050  0.1559 -0.0939
    1W        W37046  28.922  22.247   7.970  0.0379 -0.1815  0.0107
    1W        W37047  15.501  15.717   7.769 -0.1013  0.1986  0.1609
    1W        W37048   0.379   2.471   1.783 -0.0138 -0.0790  0.2077
    1W        W37049  27.027   3.520   0.630 -0.4019  0.0589  0.0484
    1W        W37050   0.121  28.629   7.930 -0.0611 -0.3065 -0.0228
    1W        W37051  10.457  19.903   0.393  0.0864 -0.0378  0.2040
    1W        W37052  22.483  25.945   2.581 -0.0375  0.2745  0.1235
    1W        W37053  20.637  22.196   0.965 -0.0705 -0.0765  0.3553
    1W        W37054   3.036  18.984   0.464 -0.4052 -0.2061 -0.2634
    1W        W37055   7.817  13.807   1.809  0.1441 -0.0949  0.2596
    1W        W37056  12.242  14.402   8.470  0.5289 -0.0857  0.1229
    1W        W37057  18.975  25.793   0.292 -0.1903 -0.0119 -0.1121
    1W        W37058  18.031  26.774   8.308  0.0183 -0.0296 -0.0022
    1W        W37059  26.065  27.331   2.034  0.0427 -0.1660 -0.0588
    1W        W37060   2.924  22.398   1.035 -0.0868 -0.3193 -0.0535
    1W        W37061   5.320  25.235   9.183  0.2861  0.0155  0.0854
    1W        W37062  19.605  26.180   6.423 -0.1558  0.2422 -0.5313
    1W        W37063   5.600   1.643   1.440 -0.1884  0.0548  0.0344
    1W        W37064   9.893  14.182   6.690 -0.3990 -0.1010 -0.1376
    1W        W37065  21.878  19.268   8.641 -0.2180 -0.0447  0.2200
    1W        W37066  17.091  13.523   1.313  0.3589 -0.1591  0.1058
    1W        W37067  22.880  26.947   2.607 -0.0389  0.0603  0.0262
    1W        W37068  14.706  10.236   7.327  0.4657 -0.1753  0.3668
    1W        W37069   6.431   5.952   2.161 -0.4003 -0.1388 -0.1880
    1W        W37070  21.197   7.495   2.312 -0.3110 -0.1113  0.0893
    1W        W37071  27.829   2.229   2.096 -0.2752  0.4083 -0.1702
    1W        W37072  23.624  26.642   8.596 -0.1786  0.1457  0.2506
    1W        W37073   4.469   3.610   2.725 -0.1755  0.0822  0.0846
    1W        W37074  11.295  11.313   8.576  0.0142  0.1424 -0.1158
    1W        W37075  22.998   9.503   1.049 -0.0821 -0.2819  0.1878
    1W        W37076  11.850  14.265   0.867 -0.0708  0.1908 -0.0560
    1W        W37077  26.571  18.605   6.533  0.1342  0.1166  0.1310
    1W        W37078  20.042  20.199   7.455 -0.3292 -0.0827  0.2021
    1W        W37079   9.446   2.033   8.987  0.0213 -0.2508 -0.0820
    1W        W37080  29.376   7.622   1.226  0.1502  0.0515  0.0925
    1W        W37081  29.218  28.071   0.578  0.0281  0.0556  0.0154
    1W        W37082  10.071   4.139   7.964 -0.0109 -0.1049  0.1599
    1W        W37083   8.139  13.554   0.510 -0.1286  0.0437 -0.0128
    1W        W37084  28.322   2.144   0.194  0.0620  0.5392  0.2425
    1W        W37085  14.406  18.460   0.472 -0.0011 -0.0368  0.3433
    1W        W37086   7.889   2.211   6.937  0.0981  0.1951  0.2864
    1W        W37087  28.761   5.210   0.369  0.0743 -0.1955 -0.0955
    1W        W37088   3.695  13.914   2.394  0.4693 -0.1938  0.2418
    1W        W37089  25.817  19.732   2.131 -0.0252 -0.0506 -0.1187
    1W        W37090  26.894   5.116   7.163  0.1861  0.1269  0.1166
    1W        W37091  22.647   9.543   2.545 -0.0239 -0.2694 -0.0341
    1W        W37092  24.406   2.129   0.951 -0.1484  0.0553  0.1106
    1W        W37093  27.733  28.266   8.113  0.2253 -0.0000 -0.1516
    1W        W37094   8.229  24.378   2.134 -0.2084  0.0737  0.2214
    1W        W37095   5.085  25.537   8.763  0.0773  0.0480 -0.1495
    1W        W37096  19.080  16.109   0.335  0.2653 -0.0599 -0.1374
    1W        W37097  11.872  14.463   2.892  0.1586 -0.1705 -0.1442
    1W        W37098   2.880   7.172   0.537 -0.1846  0.2937 -0.1292
    1W        W37099   8.231   8.189   9.121 -0.1513  0.1307 -0.1396
    1W        W37100  20.362   5.866   9.120 -0.5470  0.1762 -0.2609
    1W        W37101   8.982  28.903   2.268  0.2652 -0.1878  0.1054
    1W        W37102  21.956   6.328   3.827  0.5029 -0.0689  0.0950
    1W        W37103   9.294  13.500   5.902  0.3566  0.0849 -0.0114
    1W        W37104   7.135  28.697   1.899 -0.0507  0.2456  0.1517
    1W        W37105  29.237  18.117   2.037 -0.2650  0.1848  0.2805
    1W        W37106   5.601  27.583   9.527 -0.2770  0.1713  0.0676
    1W        W37107   7.015   9.389   2.846 -0.1704 -0.0529  0.4637
    1W        W37108  11.072   2.704   8.600  0.0199 -0.0848 -0.0644
    1W        W37109   0.675  23.824   1.641  0.0222  0.2130 -0.2019
    1W        W37110   7.770  10.774   7.667 -0.1505 -0.0752 -0.0550
    1W        W37111  19.412  25.986   1.095 -0.3319 -0.1202  0.1445
    1W        W37112  24.341   3.468   1.704 -0.0558 -0.3128  0.0783
    1W        W37113   7.798   1.772   1.175 -0.1233 -0.0045 -0.2064
    1W        W37114  13.449  14.821   1.351  0.0089 -0.0327 -0.1743
    1W        W37115  21.805  23.089   7.035 -0.0616  0.1744 -0.0947
    1W        W37116  18.141   0.012   8.941 -0.0229  0.1951 -0.0208
    1W        W37117  26.470   3.715   7.395 -0.0838 -0.3667 -0.0409
    1W        W37118   5.029   3.309   8.945 -0.1240 -0.1141 -0.1910
    1W        W37119  23.137   9.343   1.787 -0.0458 -0.1171 -0.2281
    1W        W37120  26.354  14.440   9.229 -0.0812 -0.1938  0.0706
    1W        W37121   1.012  29.413   1.140 -0.0894 -0.3022 -0.0472
    1W        W37122  17.456  19.633   7.753 -0.2010 -0.0603  0.3263
    1W        W37123   9.276  17.988   7.044 -0.2062 -0.0445  0.2460
    1W        W37124   7.375  20.056   0.399  0.0019 -0.0458  0.1690
    1W        W37125   2.249   7.674   7.190  0.3055 -0.3323  0.0893
    1W        W37126   1.213  14.452   0.801 -0.2410 -0.2239  0.0477
    1W        W37127   4.420  16.048   1.975  0.2197 -0.1724  0.1557
    1W        W37128  20.881   4.594   2.571 -0.1578 -0.0013 -0.0183
    1W        W37129  23.491   3.910   1.874 -0.0281  0.3601  0.1171
    1W        W37130  13.778   0.441   3.007  0.5024  0.1147 -0.0857
    1W        W37131  10.445  17.759   6.494 -0.0694  0.1679 -0.0465
    1W        W37132  19.574   9.918   2.210 -0.0806 -0.2589  0.0423
    1W        W37133   7.103  22.076   2.559 -0.0226  0.2413 -0.1724
    1W        W37134  10.375  26.106   6.609 -0.1386  0.2220 -0.2676
    1W        W37135  10.088  15.683   1.122  0.0787 -0.2731  0.3142
    1W        W37136  25.715   8.206   3.274  0.2311  0.3292 -0.2304
    1W        W37137  11.948   4.729   8.278  0.0505  0.4070 -0.2900
    1W        W37138  27.218  23.540   9.311 -0.0087  0.1725 -0.2404
    1W        W37139  12.470  26.841   2.174  0.1250 -0.0967 -0.1286
    1W        W37140   6.029   4.003   7.314 -0.0936  0.1677  0.2682
    1W        W37141  16.658  17.265   6.647 -0.1491 -0.0674  0.0108
    1W        W37142  12.593   5.344   3.280  0.2322 -0.1866 -0.3493
    1W        W37143  15.264   2.204   3.028  0.0825  0.0167  0.5640
    1W        W37144  26.628   9.068   8.275  0.1735  0.0338 -0.0947
    1W        W37145  10.414  18.103   8.719 -0.0390 -0.0456  0.1384
    1W        W37146  12.260   1.090   8.052  0.0433  0.3054 -0.2208
    1W        W37147  13.329  24.633   6.466 -0.1323  0.0825  0.0562
    1W        W37148  26.331   7.655   8.876  0.2200  0.0451 -0.0968
    1W        W37149  22.670   5.868   7.528 -0.2080  0.3060 -0.0470
    1W        W37150  13.746  17.127   7.286  0.3750  0.1290  0.0733
    1W        W37151   3.983   0.681   8.539  0.0646  0.2841  0.1991
    1W        W37152  12.335   4.195   0.956  0.1078 -0.1545  0.2416
    1W        W37153   1.369  25.008   9.470  0.0916 -0.0815 -0.0312
    1W        W37154   9.548  18.699   1.709 -0.0901  0.2016 -0.3354
    1W        W37155   5.662  12.975   1.891 -0.0486  0.3870  0.1313
    1W        W37156   0.513   9.792   2.339  0.0278 -0.2113  0.3970
    1W        W37157   6.674  11.509   3.017  0.4890 -0.0083 -0.3145
    1W        W37158  17.457  13.240   9.303  0.2404 -0.0658  0.1093
    1W        W37159  14.416  13.656   9.054 -0.1764 -0.0348  0.0508
    1W        W37160   5.423  18.188   7.228 -0.1461 -0.0382  0.0030
    1W        W37161  15.263  11.432   9.503  0.1139 -0.0891  0.0627
    1W        W37162  22.657  17.161   1.425 -0.2096  0.1416  0.1214
    1W        W37163  28.650  12.273   9.399 -0.0210 -0.0690 -0.0693
    1W        W37164   8.986  17.339   8.627 -0.1715 -0.0196  0.3717
    1W        W37165  21.429   2.781   9.249  0.0842 -0.2710 -0.1909
    1W        W37166  15.902  29.045   2.094 -0.0133  0.1480 -0.0950
    1W        W37167  26.859  23.840   8.156 -0.1931 -0.0262 -0.2334
    1W        W37168  20.183  22.550   0.671 -0.4480 -0.3939 -0.0110
    1W        W37169  14.976  25.505   0.052 -0.2124  0.2806  0.2552
    1W        W37170  20.087  14.537   0.839 -0.1068 -0.1109  0.2328
    1W        W37171  28.529   4.153   1.953  0.0484  0.1520  0.2085
    1W        W37172  22.770  24.970   0.486  0.0961 -0.0447 -0.1948
    1W        W37173  12.530   8.265   2.538  0.1395  0.0988 -0.0192
    1W        W37174  28.432   2.697   1.895 -0.0302 -0.1420  0.3427
    1W        W37175   5.820  28.713   1.432 -0.0561 -0.3008 -0.0264
    1W        W37176  28.018  24.819   8.267 -0.0997 -0.1958 -0.1062
    1W        W37177  27.615   7.729   2.285  0.3946  0.0803 -0.0915
    1W        W37178  10.413   3.055   8.742  0.0395 -0.0533  0.2475
    1W        W37179   1.526  24.018   6.936  0.2762 -0.0078 -0.2006
    1W        W37180  16.860  19.502   8.819 -0.0864 -0.0282  0.2197
    1W        W37181  15.801   2.840   0.452  0.0807  0.0152 -0.0983
    1W        W37182  11.821  18.354   7.468 -0.0425  0.0099 -0.0634
    1W        W37183  21.712   9.096   2.220  0.0097  0.0189  0.0182
    1W        W37184  20.360  15.705   6.980 -0.0575 -0.1889  0.1782
    1W        W37185   4.417  13.509   1.575  0.5445  0.4221  0.0850
    1W        W37186   6.346  12.022   2.837  0.2398  0.3280  0.0378
    1W        W37187  29.064  24.301   9.303  0.0150  0.1080  0.2722
    1W        W37188  14.514  22.456   6.333 -0.0723  0.0202  0.0870
    1W        W37189  18.994   7.834   0.234  0.3489  0.0028  0.1447
    1W        W37190  14.795  10.660   9.423  0.1762  0.2093  0.1565
    1W        W37191   8.492   9.172   0.008  0.1498  0.0825  0.1297
    1W        W37192  12.163   3.825   8.950  0.2724 -0.0355 -0.1357
    1W        W37193  10.002  11.268   8.123  0.0913  0.0809 -0.1044
    1W        W37194  21.586   2.915   1.573  0.1235  0.0755  0.3510
    1W        W37195   7.485  22.795   8.741  0.1658  0.0099 -0.0200
    1W        W37196  27.417  19.710   8.832 -0.0362  0.3152 -0.1305
    1W        W37197   6.808  20.988   1.927  0.1358  0.0285  0.1897
    1W        W37198  20.362  28.051   5.958  0.1393  0.0299 -0.0360
    1W        W37199   8.384  26.018   0.863  0.1852 -0.1214 -0.1400
    1W        W37200  27.679  25.371   8.020  0.1041  0.2432 -0.1898
    1W        W37201   7.460  24.367   2.491 -0.1200 -0.1256  0.1919
    1W        W37202   4.133   2.774   2.026  0.0637  0.1263  0.6441
    1W        W37203   6.660   0.061   1.054 -0.3235 -0.2068 -0.3067
    1W        W37204   7.007  19.098   8.111  0.0031 -0.1608 -0.2170
    1W        W37205  24.011  21.959   2.139 -0.0101  0.0205 -0.0619
    1W        W37206  21.156   3.677   1.091 -0.0735 -0.1421 -0.0163
    1W        W37207   0.362  16.338   2.041  0.2445  0.1152  0.0419
    1W        W37208   3.248  28.865   0.482  0.0438  0.0753  0.0710
    1W        W37209   5.391  26.837   5.385 -0.0905 -0.0396 -0.0969
    1W        W37210  19.657  12.287   8.133 -0.0866  0.0436  0.2093
    1W        W37211   0.092  16.169   1.152 -0.1349 -0.2441  0.3151
    1W        W37212   8.181   2.636   1.223 -0.0930  0.5922 -0.0138
    1W        W37213  28.786  21.149   8.662  0.2364  0.2235  0.0692
    1W        W37214  15.463   3.297   2.314 -0.1709  0.0334 -0.1087
    1W        W37215  13.757  12.816   8.225  0.0535  0.0123 -0.0434
    1W        W37216   8.272  12.519   0.176  0.2749  0.0319 -0.2140
    1W        W37217  13.531   1.391   3.075 -0.2407 -0.0344  0.0209
    1W        W37218  19.656  23.384   0.588 -0.0575 -0.0637  0.1152
    1W        W37219   4.996  12.607   6.774 -0.0043 -0.2135  0.0162
    1W        W37220  21.714  11.206   8.127 -0.0272  0.0415  0.0058
    1W        W37221   2.492  24.676   0.197 -0.0932  0.0020  0.1958
    1W        W37222  23.868  17.571   8.101  0.0920  0.3405 -0.0603
    1W        W37223  21.224  19.763   7.808  0.1486 -0.1830  0.0324
    1W        W37224  15.336  22.587   6.352 -0.0972  0.0337 -0.0319
    1W        W37225  10.128  26.303   0.904 -0.0765 -0.0552  0.0172
    1W        W37226  17.019  23.382   1.207  0.2455  0.1892  0.0709
    1W        W37227  17.157   3.146   4.359 -0.2537 -0.3047 -0.2861
    1W        W37228  24.831   0.175   2.756  0.3482 -0.0141  0.0013
    1W        W37229  12.907   3.514   3.593 -0.1233  0.0663 -0.1753
    1W        W37230  29.657  27.089   7.973  0.0789  0.2574  0.3595
    1W        W37231  16.162  18.004   8.472  0.2082  0.3387 -0.4306
    1W        W37232   7.577  22.113   6.421 -0.1075  0.1863 -0.0707
    1W        W37233   2.356  20.906   8.913 -0.2200  0.0545 -0.2129
    1W        W37234   7.078   9.719   8.881 -0.3863  0.3198 -0.0808
    1W        W37235  22.451  10.670   8.215  0.2567  0.0668 -0.0652
    1W        W37236  10.631  16.355   9.068 -0.1202 -0.1844 -0.2782
    1W        W37237   5.485  26.290   7.585 -0.0416  0.1046  0.2032
    1W        W37238  13.390  18.761   6.325 -0.2092  0.1883 -0.0579
    1W        W37239  17.887  24.832   1.868  0.2196 -0.1065  0.2577
    1W        W37240  12.291  18.612   0.766 -0.0642 -0.1785 -0.1015
    1W        W37241   9.899  21.582   2.445  0.0814 -0.1771 -0.0505
    1W        W37242  20.980   0.102   2.787  0.2783  0.0523  0.2582
    1W        W37243   1.693  12.640   7.549  0.1802 -0.3786 -0.1218
    1W        W37244  14.574  23.077   1.338 -0.0432  0.0086 -0.2271
    1W        W37245  15.865  11.235   1.780 -0.0009  0.0028 -0.2114
    1W        W37246   6.416  22.460   0.904 -0.1491  0.3567 -0.2551
    1W        W37247  12.038  15.848   2.192  0.0330  0.0665  0.0165
    1W        W37248  16.408  29.044   0.028  0.1309 -0.1307 -0.1562
    1W        W37249  28.128   3.900   7.371 -0.0112  0.3817  0.0468
    1W        W37250   2.125  27.267   8.780  0.2957  0.1270 -0.0849
    1W        W37251  16.710   4.335   2.448 -0.0621  0.0898 -0.1028
    1W        W37252  20.170  11.355   0.689  0.0488 -0.0425  0.0476
    1W        W37253   8.918  11.128   1.387  0.1763 -0.1550 -0.1579
    1W        W37254  11.626   9.914   8.428  0.0239  0.0284 -0.2045
    1W        W37255   8.700  19.501   1.145  0.1173  0.0630 -0.2175
    1W        W37256  29.747  29.188   8.736  0.2335  0.1232 -0.0991
    1W        W37257  28.799  10.041   0.187  0.1986 -0.1478  0.0906
    1W        W37258  29.470  18.033   3.451 -0.2160 -0.0901  0.2543
    1W        W37259  29.240  13.691   8.088 -0.0801 -0.3391  0.0155
    1W        W37260   6.187  10.936   8.500  0.2011  0.1605 -0.1767
    1W        W37261   5.862  28.879   2.880 -0.0501  0.2251 -0.3266
    1W        W37262  28.707   9.226   7.413 -0.0206  0.0944  0.2258
    1W        W37263  12.081   1.941   1.786 -0.1967 -0.1591  0.1088
    1W        W37264  23.194  16.709   9.131 -0.0366 -0.0673 -0.0225
    1W        W37265   7.426  12.784   2.767  0.3771  0.0402  0.0191
    1W        W37266  18.251   4.606   3.085 -0.2338 -0.1867  0.1207
    1W        W37267   1.690  26.602   6.940 -0.2541  0.0201  0.0522
    1W        W37268   6.035   3.402   9.001 -0.1435 -0.1031 -0.1356
    1W        W37269   8.240   8.053   6.898  0.1269  0.1754 -0.0701
    1W        W37270  18.661  21.880   7.584  0.0174  0.0023 -0.0748
    1W        W37271  13.296  27.154   2.323  0.4061  0.0723  0.1341
    1W        W37272  16.749  25.618   0.020  0.3071  0.0888  0.1521
    1W        W37273  22.762   3.695   9.292  0.3355 -0.3299  0.0900
    1W        W37274  14.812  27.942   7.468 -0.1759 -0.0581 -0.1291
    1W        W37275  25.150  28.569   3.331  0.1007 -0.2371 -0.2210
    1W        W37276  15.492  13.345   0.901  0.0324  0.1640 -0.0454
    1W        W37277   5.570   2.128   9.394 -0.1307  0.1772 -0.0710
    1W        W37278  22.842  13.095   8.167 -0.1182 -0.0474 -0.4154
    1W        W37279  22.929   7.262   3.774  0.2245  0.2160 -0.2527
    1W        W37280   2.942   9.587   1.976  0.1185  0.3304 -0.1372
    1W        W37281  27.471  29.040   6.895  0.1594  0.3729  0.4327
    1W        W37282   9.050   0.383   3.724 -0.0027  0.0983 -0.2122
    1W        W37283  21.500  27.043   9.403 -0.1138 -0.0229  0.0128
    1W        W37284  11.166  15.497   6.989 -0.2725 -0.0135 -0.0574
    1W        W37285  20.941  21.001   8.528  0.0108 -0.0433 -0.2331
    1W        W37286  10.918   5.052   7.374  0.0154  0.3466 -0.1402
    1W        W37287  13.498   5.647   2.740 -0.0658 -0.0147  0.2911
    1W        W37288  13.237   7.662   9.510 -0.4141 -0.1604 -0.0768
    1W        W37289  19.664   0.957   2.633  0.1410  0.3255 -0.1118
    1W        W37290  23.222   6.280   8.584  0.0612  0.1685  0.2407
    1W        W37291   1.266   4.586   2.959 -0.0470  0.0044 -0.0766
    1W        W37292  12.598  26.130   0.543  0.3148 -0.1781  0.1594
    1W        W37293   9.028   7.782   2.415  0.2676 -0.1503 -0.1048
    1W        W37294  23.282  25.451   1.337 -0.1050 -0.0865  0.1254
    1W        W37295  29.402  15.787   2.477  0.3832  0.0610 -0.0184
    1W        W37296   0.866  26.293   6.923 -0.0799 -0.0238 -0.0533
    1W        W37297  26.075   3.971   0.846 -0.2694 -0.2750  0.2278
    1W        W37298   3.984  12.300   6.841 -0.3368  0.0680 -0.1662
    1W        W37299   8.190   5.848   0.375  0.2446 -0.0268  0.0370
    1W        W37300  25.069  23.065   0.785 -0.0623 -0.2181 -0.1201
    1W        W37301  15.536   5.969   9.484  0.0648  0.1043 -0.4669
    1W        W37302   5.913   3.553   2.928 -0.0303  0.1696  0.2658
    1W        W37303  20.829  13.182   1.654  0.1337  0.0075  0.1926
    1W        W37304  19.617  18.639   6.769  0.0808 -0.1553  0.0615
    1W        W37305  16.621   6.065   0.837 -0.1733  0.2182 -0.2558
    1W        W37306   9.425  21.160   1.602 -0.1572  0.0101  0.2281
    1W        W37307  20.849   4.808   1.622 -0.0076  0.1153  0.0037
    1W        W37308  20.947   0.247   9.090 -0.2326 -0.1712 -0.3232
    1W        W37309  13.720  27.683   7.746 -0.0196  0.1734 -0.0508
    1W        W37310  18.654  13.691   6.636  0.0348 -0.0752 -0.0960
    1W        W37311  20.367   2.025   1.532 -0.1254 -0.2181 -0.0640
    1W        W37312  28.836  29.491   1.486  0.4803  0.1105  0.4993
    1W        W37313  29.000   0.164   6.713 -0.2702 -0.0464 -0.1856
    1W        W37314   2.659  21.824   1.212  0.1757  0.0750  0.0153
    1W        W37315  12.540   7.459   8.463 -0.0160  0.4603  0.1421
    1W        W37316   4.020   0.350   9.326  0.1391  0.1910  0.0685
    1W        W37317  18.809   8.732   9.020  0.1459  0.0543  0.2742
    1W        W37318  28.054   2.373   1.675 -0.3779 -0.0807 -0.1143
    1W        W37319   6.147   5.029   2.630  0.0111  0.2127  0.0555
    1W        W37320   5.701  29.000   0.046  0.1644 -0.0217  0.2916
    1W        W37321  16.127  17.415   7.376 -0.3019 -0.1093  0.2996
    1W        W37322   5.177  22.751   6.496  0.2100 -0.1523  0.1727
    1W        W37323  14.599  27.043   8.913 -0.1147 -0.2193 -0.2558
    1W        W37324  20.564  10.366   7.597  0.0435 -0.1764 -0.1059
    1W        W37325  14.622  26.831   2.493 -0.1385 -0.0538 -0.2282
    1W        W37326  14.288  12.668   8.200 -0.2732 -0.1211  0.0654
    1W        W37327   9.062   4.401   3.162 -0.0842  0.0207 -0.0085
    1W        W37328  23.907  17.729   1.476 -0.0946  0.0208 -0.1615
    1W        W37329  24.914  28.567   9.295  0.0851 -0.1051 -0.3390
    1W        W37330  21.286   5.663   3.270 -0.0363  0.1674 -0.1174
    1W        W37331   8.882  12.094   6.581 -0.0804  0.4588 -0.0951
    1W        W37332  21.046  18.774   0.399  0.1019  0.1229  0.1352
    1W        W37333   1.584   3.503   2.828  0.4708 -0.1037  0.2560
    1W        W37334   2.118  22.318   6.735 -0.0249  0.0739  0.2253
    1W        W37335   0.326  12.827   6.587 -0.2452 -0.1970  0.3164
    1W        W37336  25.499  29.554   2.259  0.1676 -0.0136 -0.0133
    1W        W37337  17.656  19.532   8.296 -0.0224 -0.0821  0.0412
    1W        W37338  12.485   5.575   2.281  0.0392 -0.0815  0.2363
    1W        W37339  29.786  10.125   1.292 -0.0721 -0.2861 -0.2627
    1W        W37340  15.702   7.274   2.582 -0.2214 -0.0429 -0.1323
    1W        W37341  18.680   1.380   9.464 -0.1143 -0.1439 -0.0788
    1W        W37342   3.586  13.201   8.137  0.0626 -0.1527 -0.0278
    1W        W37343  19.270  12.969   0.305 -0.3810 -0.0185 -0.1787
    1W        W37344   2.690   5.374   8.179  0.0110  0.1379  0.3181
    1W        W37345  23.542  29.081   2.305  0.0295 -0.2195  0.0143
    1W        W37346  17.599  21.075   0.032 -0.0218 -0.3089  0.0033
    1W        W37347  29.086   5.398   1.961  0.0691  0.0218 -0.0523
    1W        W37348   9.806   0.738   0.205  0.1844 -0.1588  0.0042
    1W        W37349  27.189  27.104   9.523  0.1231 -0.1761 -0.0327
    1W        W37350   7.960  27.743   8.608 -0.3336  0.1353 -0.0929
    1W        W37351   2.000   6.698   9.210 -0.0685 -0.2444 -0.0817
    1W        W37352  25.205   2.403   7.409  0.0285 -0.2459 -0.1161
    1W        W37353  26.785  14.772   9.070  0.3872 -0.2035 -0.1047
    1W        W37354   2.154  27.417   0.599 -0.0419  0.2602  0.2268
    1W        W37355  26.969  20.671   2.415 -0.1696  0.2435 -0.2685
    1W        W37356   4.717   9.458   7.830 -0.1369 -0.1076  0.2255
    1W        W37357  12.545  27.017   6.755  0.1150  0.1985  0.3718
    1W        W37358  10.313   9.249   7.893  0.0182  0.1830  0.3994
    1W        W37359  19.177   2.443   0.542  0.1257  0.0267  0.0195
    1W        W37360  16.450  20.142   9.265 -0.0740  0.1405  0.0246
    1W        W37361   2.803  16.670   7.293 -0.1267  0.2658 -0.4699
    1W        W37362  19.795  10.454   1.610  0.0835  0.1198  0.0310
    1W        W37363   4.847  15.971   6.089 -0.3020 -0.0043  0.0845
    1W        W37364  29.570   7.483   7.605 -0.1204  0.0193  0.0465
    1W        W37365  26.781   7.286   0.174  0.0377 -0.1203 -0.2064
    1W        W37366  19.537   1.684   2.038  0.0616  0.1134  0.1387
    1W        W37367   6.146   0.581   6.371 -0.2266  0.0071 -0.2082
    1W        W37368  28.153  11.716   2.320  0.0728  0.2358  0.0963
    1W        W37369   0.644  28.120   7.084 -0.2862 -0.0013 -0.3806
    1W        W37370   0.595  28.982   9.467  0.0614  0.1439  0.1280
    1W        W37371   7.139   5.918   7.636  0.0739 -0.1240  0.3904
    1W        W37372  14.498   5.795   2.523  0.1438  0.0038  0.0765
    1W        W37373  11.258  17.324   9.509 -0.0581 -0.2268  0.0106
    1W        W37374  11.917  26.847   6.070  0.1194  0.0032 -0.1842
    1W        W37375  29.108  26.841   8.720  0.2123 -0.2715  0.0291
    1W        W37376   8.075   3.307   3.012 -0.1243 -0.2254 -0.0118
    1W        W37377  25.938   7.022   7.749  0.0319 -0.1966  0.0409
    1W        W37378  20.113   7.182   8.519  0.1162 -0.2040 -0.0602
    1W        W37379   8.604  23.016   7.866 -0.1566  0.0518 -0.1547
    1W        W37380  13.501  26.112   0.354  0.2551  0.1563  0.2522
    1W        W37381  21.612  27.492   0.950  0.3540 -0.0439 -0.3218
    1W        W37382  23.399   2.968   1.962  0.2280 -0.2090 -0.2057
    1W        W37383  25.524  10.709   9.445  0.3194  0.0016  0.3499
    1W        W37384  15.771   6.971   1.705 -0.1176  0.2657 -0.1225
    1W        W37385   5.682  22.981   6.723  0.2063 -0.1369  0.1611
    1W        W37386   7.307   5.987   2.280 -0.3711  0.0637 -0.2368
    1W        W37387  16.336  15.276   8.165  0.2245 -0.1795 -0.3207
    1W        W37388  26.763  22.962   1.239 -0.2120 -0.0767  0.0908
    1W        W37389  22.154   1.741   7.249  0.2034  0.2137 -0.0149
    1W        W37390  24.954  27.324   1.752 -0.0658  0.0202 -0.0868
    1W        W37391  28.675  15.861   8.621 -0.1698 -0.3728  0.2815
    1W        W37392  13.464  11.927   8.927 -0.1598  0.0757  0.0799
    1W        W37393   5.575  24.657   0.320  0.0168  0.5280  0.0429
    1W        W37394  16.864   3.836   2.286 -0.1376 -0.0548  0.0049
    1W        W37395  22.456  23.537   9.311 -0.1699 -0.0075  0.1036
    1W        W37396  19.237  16.989   8.156 -0.1902  0.0200 -0.0265
    1W        W37397  14.771  19.315   6.733  0.0772 -0.0983 -0.1768
    1W        W37398   6.904  13.503   8.055  0.1645 -0.0121 -0.1603
    1W        W37399  21.945  18.268   9.369  0.0520 -0.1518 -0.1079
    1W        W37400   5.419   4.233   0.983 -0.4304  0.0531  0.0968
    1W        W37401   8.172   4.431   0.166  0.3729  0.0698 -0.0910
    1W        W37402  28.241  14.322   1.830  0.0798 -0.0289  0.2358
    1W        W37403  15.715   5.373   1.087 -0.0084  0.0212 -0.0969
    1W        W37404  17.884  24.409   8.816  0.0671 -0.1281  0.0666
    1W        W37405  14.346  13.477   1.027  0.1068 -0.0779 -0.1529
    1W        W37406  13.583  13.934   2.152  0.0127  0.2586  0.3402
    1W        W37407  12.259  15.296   7.187  0.0314 -0.1931  0.2749
    1W        W37408  24.531  29.499   8.299  0.0293  0.1313 -0.1879
    1W        W37409   1.921  27.738   9.051  0.1681  0.2124 -0.1136
    1W        W37410  15.636  23.045   1.868 -0.1097 -0.0272 -0.1469
    1W        W37411   8.019   2.566   0.183  0.1217 -0.1692  0.1978
    1W        W37412  17.900  29.034   1.758 -0.2193  0.0664  0.3604
    1W        W37413  13.583   8.563   3.060  0.0392 -0.0373 -0.3013
    1W        W37414  17.461  27.756   7.673  0.0149  0.2112  0.3007
    1W        W37415  29.479  19.093   9.324  0.1247 -0.1103 -0.0424
    1W        W37416  26.368   4.804   7.264 -0.1075  0.0872  0.0040
    1W        W37417  23.034  17.495   8.495  0.0363  0.3122 -0.0134
    1W        W37418   7.468   3.186   0.124  0.2659 -0.1629 -0.0703
    1W        W37419   5.457   3.836   7.475  0.0602  0.0419  0.0541
    1W        W37420  13.172  14.657   9.487 -0.1041 -0.0626  0.0273
    1W        W37421  15.127  17.240   7.246  0.0788 -0.2942  0.3001
    1W        W37422  17.240  11.943   0.843  0.4195  0.1963  0.0664
    1W        W37423   5.291  12.833   8.279 -0.1306  0.3284  0.0560
    1W        W37424  15.200  26.817   7.098  0.5358 -0.0795 -0.3547
    1W        W37425   3.932  29.495   6.993  0.3333  0.1194 -0.1087
    1W        W37426   5.694  10.325   8.329 -0.2110  0.3650  0.0487
    1W        W37427   6.738  14.476   6.270  0.1627  0.1223  0.1427
    1W        W37428   7.138   2.980   1.532  0.0038 -0.1186  0.3308
    1W        W37429  22.483   5.800   2.205 -0.0527  0.0213 -0.0454
    1W        W37430   8.142   5.641   2.266 -0.0370 -0.0924 -0.0316
    1W        W37431  15.344   5.758   7.690 -0.0939  0.0198  0.0692
    1W        W37432   1.668  22.071   0.328  0.1587 -0.0465 -0.0522
    1W        W37433  10.829  21.269   8.428  0.0114  0.0423 -0.1545
    1W        W37434   4.851   8.661   7.878 -0.0647 -0.1158 -0.2423
    1W        W37435  19.755  18.330   7.824  0.2474  0.0304  0.1063
    1W        W37436  29.711  10.345   2.616 -0.1828  0.1010  0.1234
    1W        W37437  25.705  19.459   1.589  0.0064 -0.0941  0.2867
    1W        W37438  15.366  27.062   8.559 -0.1224 -0.0684  0.1319
    1W        W37439  13.491  12.756   9.306 -0.1944 -0.2102  0.3811
    1W        W37440   3.288  11.956   0.984 -0.0549  0.0664  0.2722
    1W        W37441   4.554  15.255   8.303 -0.2166  0.1268  0.1619
    1W        W37442  13.269  22.152   0.347 -0.1978 -0.1308  0.0671
    1W        W37443  10.808  20.833   1.972  0.0427  0.2135 -0.0558
    1W        W37444  16.399  14.025   0.218 -0.0938 -0.0967  0.0506
    1W        W37445  20.499   4.074   3.422  0.2696  0.0156  0.1889
    1W        W37446  12.564  25.407   6.783 -0.0875  0.2132  0.1978
    1W        W37447  20.290   9.425   8.075  0.1405 -0.1145 -0.1673
    1W        W37448  17.341  21.727   5.937 -0.1793  0.1127  0.1790
    1W        W37449   1.258   3.833   7.958  0.1353  0.0030  0.0346
    1W        W37450  17.332  14.878   0.156 -0.1100 -0.1145  0.1446
    1W        W37451  20.212   9.948   8.251  0.0647  0.0909 -0.0597
    1W        W37452  13.238   6.011   2.516  0.3363  0.0536 -0.2661
    1W        W37453  27.272   7.854   8.576 -0.3024 -0.0103  0.0146
    1W        W37454   4.773   3.967   2.927  0.0419 -0.0130  0.1029
    1W        W37455   5.109   2.960   7.007 -0.3307  0.1503 -0.1788
    1W        W37456   4.363  12.328   2.717 -0.1884  0.2266 -0.0328
    1W        W37457  24.528  12.913   0.902  0.4955  0.2129  0.0990
    1W        W37458   7.612  23.997   6.696 -0.0169 -0.0267 -0.1691
    1W        W37459  27.515   6.970   1.940 -0.0250 -0.2146 -0.0448
    1W        W37460   5.349   3.625   8.039  0.0179  0.3646  0.0247
    1W        W37461  19.514   5.432   8.718  0.3159 -0.1523  0.0469
    1W        W37462  17.144  25.236   8.135  0.1150  0.0505 -0.1744
    1W        W37463  14.362  10.048   0.670 -0.1121 -0.1333 -0.0684
    1W        W37464  23.508   6.623   7.315  0.0738  0.1882 -0.1146
    1W        W37465   6.418  23.490   1.009  0.1910  0.1172  0.1579
    1W        W37466  19.157  28.823   1.504 -0.1860  0.3493 -0.0524
    1W        W37467  24.701  25.791   0.178  0.0435 -0.1410  0.0648
    1W        W37468  28.855  26.348   3.104  0.1132 -0.0657  0.0001
    1W        W37469   5.183   6.484   6.921  0.1258 -0.2270  0.2470
    1W        W37470   4.817   2.455   7.054 -0.1071  0.0983  0.3192
    1W        W37471  16.860   1.677   8.787  0.1869  0.2517  0.0475
    1W        W37472  18.500   7.983   0.031 -0.2244 -0.3414 -0.0104
    1W        W37473  21.388  11.542   7.757  0.0966 -0.0387  0.1693
    1W        W37474   8.046   8.190   1.918  0.1699  0.0791  0.1222
    1W        W37475  17.860  17.832   8.473 -0.0693  0.2586 -0.3472
    1W        W37476  12.822  14.449   1.931 -0.0092 -0.4381 -0.2886
    1W        W37477  18.266   1.621   9.258  0.3411  0.1232 -0.0689
    1W        W37478  24.979  22.455   8.653 -0.1065  0.2463  0.0089
    1W        W37479   8.903  23.182   6.011  0.2800 -0.3339 -0.2222
    1W        W37480  23.636  28.141   7.908 -0.2207  0.1905 -0.0631
    1W        W37481  17.099  15.585   1.602 -0.0201 -0.1035 -0.0874
    1W        W37482  20.586   7.345   0.399 -0.0242  0.1233  0.1602
    1W        W37483   8.841   5.739   6.949  0.2236 -0.3104 -0.1673
    1W        W37484  25.029   0.665   7.994  0.2145 -0.1278 -0.0969
    1W        W37485  27.104  11.304   6.689  0.0473  0.2879 -0.1862
    1W        W37486  10.663  28.579   2.609 -0.1465  0.2036  0.0673
    1W        W37487  12.305  13.354   2.115  0.0804  0.1661  0.2447
    1W        W37488   5.425   0.748   0.698 -0.4006 -0.0635 -0.1297
    1W        W37489  26.484  29.422   6.676  0.1234  0.0545 -0.2454
    1W        W37490  16.674   1.602   0.804  0.1373 -0.1164  0.3626
    1W        W37491  12.272  17.033   8.514 -0.3953 -0.0023 -0.1055
    1W        W37492  27.487  21.576   7.682 -0.0124 -0.1260 -0.1135
    1W        W37493  23.864  14.150   2.480 -0.0238  0.1153  0.0341
    1W        W37494  19.644   6.583   0.219 -0.3379 -0.0258 -0.2057
    1W        W37495   7.220  10.109   0.462 -0.1314  0.1095  0.0208
    1W        W37496   9.065  26.394   9.265 -0.1870 -0.0238 -0.0975
    1W        W37497  12.609  23.189   2.104  0.1648  0.0073  0.0246
    1W        W37498   6.155  19.944   7.369 -0.2332  0.3849 -0.0876
    1W        W37499  13.774   2.747   7.607  0.2951 -0.3121  0.1118
    1W        W37500   3.274  25.260   2.413 -0.1328  0.2117 -0.0751
    1W        W37501   4.351  16.016   9.013 -0.0672  0.1006  0.0145
    1W        W37502  27.932   7.785   6.942 -0.1635  0.1198  0.1015
    1W        W37503  13.868  10.151   7.263  0.2469 -0.0553 -0.2789
    1W        W37504  10.795   2.345   8.396  0.2161 -0.4428  0.2083
    1W        W37505  10.750  14.089   0.664 -0.1693 -0.1627 -0.0174
    1W        W37506   2.783   0.869   0.814  0.1273  0.0809  0.3973
    1W        W37507  15.646  12.674   2.024  0.1657 -0.4547 -0.0252
    1W        W37508  20.293   8.284   0.198  0.0867 -0.1997 -0.0923
    1W        W37509  18.471  27.282   2.531  0.0541 -0.6088  0.0816
    1W        W37510  28.759   3.629   1.246  0.1820 -0.0076  0.1060
    1W        W37511  22.862  12.461   8.745 -0.2011  0.2308  0.2458
    1W        W37512   7.670  16.936   7.740  0.1708  0.0028  0.1975
    1W        W37513  23.308  13.237   8.920  0.0844 -0.2044 -0.0771
    1W        W37514  23.233  28.875   8.706  0.1643 -0.0792 -0.0493
    1W        W37515  28.561  16.127   1.567  0.0671  0.0691  0.2187
    1W        W37516   9.802  12.610   2.397  0.1830 -0.1582  0.0256
    1W        W37517  17.129   0.008   3.197 -0.1559 -0.2803  0.0618
    1W        W37518   0.577  23.637   6.504 -0.2748 -0.0197  0.2484
    1W        W37519  18.651   4.135   3.448  0.1760  0.1076  0.1167
    1W        W37520   7.235   8.146   8.463  0.1618 -0.0707 -0.1178
    1W        W37521   4.827  12.065   0.663 -0.1881  0.0005  0.0846
    1W        W37522   7.011   8.759   1.178 -0.1311  0.0649  0.2319
    1W        W37523   1.299   5.929   3.419  0.2565 -0.1241  0.0227
    1W        W37524  20.110  26.271   6.553  0.1123 -0.1346  0.0033
    1W        W37525  25.261  11.810   9.273  0.1006 -0.0911 -0.2747
    1W        W37526  10.563  12.916   8.447 -0.2257  0.0361 -0.0657
    1W        W37527   8.314  12.486   6.919  0.2763 -0.0855 -0.0450
    1W        W37528   1.448   6.228   2.171 -0.1148  0.0532  0.0798
    1W        W37529  23.281  17.534   7.216 -0.2181 -0.1841  0.0387
    1W        W37530  22.526  27.758   7.049  0.2542  0.0806  0.2255
    1W        W37531  16.987  20.627   5.956  0.0615  0.0825  0.0025
    1W        W37532  24.930   2.146   8.098  0.1342  0.3250  0.1338
    1W        W37533  21.472   6.087   3.019 -0.0291 -0.1650  0.1116
    1W        W37534   4.158  14.472   7.119  0.2056 -0.0794 -0.1297
    1W        W37535  25.032  28.604   1.974  0.0832 -0.1417 -0.1731
    1W        W37536   3.069   4.813   1.030 -0.1144  0.0185 -0.1721
    1W        W37537  16.868  17.074   1.847 -0.0418 -0.1500  0.0280
    1W        W37538  21.719  28.318   8.067 -0.0699 -0.0428 -0.2210
    1W        W37539  11.850  12.246   1.188  0.2398 -0.1328  0.1035
    1W        W37540  19.754  21.704   6.215  0.1212 -0.2155  0.0400
    1W        W37541   7.100   9.042   0.648  0.1287 -0.1785 -0.2328
    1W        W37542   3.569  10.377   6.863  0.0688  0.1532 -0.2185
    1W        W37543  17.554   2.139   0.774 -0.2452 -0.0675 -0.0786
    1W        W37544  15.072  22.520   8.401 -0.0208  0.2429  0.1172
    1W        W37545  25.768   0.577   1.796  0.2938  0.0303 -0.2149
    1W        W37546   6.821  29.425   6.453  0.0695 -0.2067 -0.2103
    1W        W37547   9.875  22.641   8.271  0.3339 -0.2021 -0.0290
    1W        W37548  25.906   3.609   1.166 -0.2624  0.2506 -0.1639
    1W        W37549  19.399  17.746   2.178 -0.0731 -0.0526 -0.2609
    1W        W37550  22.873  10.692   7.791 -0.2157  0.0783  0.1324
    1W        W37551  10.195   9.975   9.133 -0.1084  0.2902 -0.1100
    1W        W37552  28.296  13.309   1.972 -0.1869  0.1423 -0.4122
    1W        W37553  22.646  10.242   7.906  0.0453 -0.1995  0.0007
    1W        W37554   6.748  13.491   0.473 -0.1647  0.0977 -0.1398
    1W        W37555   4.052  23.276   6.833 -0.0404 -0.0995 -0.0715
    1W        W37556  19.577  24.763   8.976  0.1046  0.0310 -0.1815
    1W        W37557   8.962  24.934   7.177 -0.0175 -0.3636  0.1495
    1W        W37558  17.003  17.875   0.521  0.1056 -0.0530 -0.0970
    1W        W37559  16.317  21.010   9.304 -0.0407 -0.0939  0.1233
    1W        W37560  21.687   4.097   4.234  0.0050  0.2042  0.1481
    1W        W37561  15.120   3.724   2.860 -0.2855  0.2059 -0.0959
    1W        W37562   5.493  14.567   1.286 -0.1647 -0.1423  0.2382
    1W        W37563  16.749  26.957   6.128  0.2062  0.1002 -0.5137
    1W        W37564   2.635   4.836   6.849  0.0820 -0.1720  0.0698
    1W        W37565  12.326  16.713   9.494  0.0381 -0.1419  0.3623
    1W        W37566   7.981  12.244   5.907 -0.2002  0.3119  0.0964
    1W        W37567  12.647   9.578   2.068 -0.0087 -0.1338  0.1305
    1W        W37568  24.636  24.131   7.482 -0.0619 -0.3118 -0.0737
    1W        W37569   1.162  14.755   7.246  0.0636  0.1037  0.0093
    1W        W37570   9.009  26.775   8.851  0.0541 -0.2993 -0.1963
    1W        W37571   2.944  14.227   1.459 -0.1828 -0.2311 -0.0145
    1W        W37572   5.083  25.313   0.198 -0.0905 -0.1560  0.0193
    1W        W37573  23.597   8.366   1.115 -0.1280  0.1790  0.2696
    1W        W37574   6.592  14.759   2.445  0.3016 -0.1123 -0.0250
    1W        W37575  10.526   3.997   8.300 -0.0068  0.0370 -0.1020
    1W        W37576   9.358   0.604   2.806 -0.0053  0.1474  0.2150
    1W        W37577  13.172  16.351   8.738  0.0632 -0.0773  0.0561
    1W        W37578  11.876  20.136   9.272 -0.1516 -0.2388 -0.0388
    1W        W37579  20.949  12.795   0.018 -0.0061 -0.0348 -0.0434
    1W        W37580   4.154  12.058   9.378  0.2459 -0.0290 -0.3162
    1W        W37581   2.068  17.397   1.324  0.1351  0.4732  0.1394
    1W        W37582  24.627  19.804   1.051  0.1538 -0.0153  0.0771
    1W        W37583  28.931  12.174   2.409 -0.0020  0.0750 -0.2348
    1W        W37584   0.776   8.807   0.974  0.5200 -0.0314  0.1895
    1W        W37585  10.414   1.581   7.785  0.1718  0.1311  0.1629
    1W        W37586  16.454  13.118   0.653  0.2183 -0.0017  0.1084
    1W        W37587   3.295   5.352   7.350 -0.0942 -0.1016 -0.0653
    1W        W37588  25.465   9.057   7.618 -0.4206  0.2220 -0.1213
    1W        W37589  24.055  19.535   0.267 -0.2210 -0.1593  0.0726
    1W        W37590   5.005   9.013   6.778  0.0407 -0.1465  0.2808
    1W        W37591  19.846  11.165   1.000 -0.2743 -0.0542  0.0262
    1W        W37592   2.105  28.851   2.179 -0.3455 -0.0352 -0.0012
    1W        W37593   0.022  25.134   8.274  0.3937 -0.0542 -0.0127
    1W        W37594   6.898  11.076   2.441  0.1927  0.0974 -0.1653
    1W        W37595  14.254   6.297   3.049  0.2105 -0.2058  0.1766
    1W        W37596  27.387  29.429   2.604 -0.0168 -0.1185 -0.1422
    1W        W37597  24.110  15.425   7.817  0.0595 -0.0174 -0.1231
    1W        W37598  20.637   3.276   3.161 -0.0073  0.1910  0.1420
    1W        W37599  21.670  18.293   6.769  0.0870  0.0741  0.2359
    1W        W37600   6.500  27.873   0.144  0.2120  0.0792 -0.0772
    1W        W37601  15.159  12.475   2.194  0.1616 -0.3201 -0.1825
    1W        W37602  23.484  19.307   7.261 -0.2730  0.1244  0.1002
    1W        W37603   9.414  16.746   1.956  0.0313  0.2168  0.0445
    1W        W37604  14.456  25.462   8.973 -0.2714 -0.2271 -0.0201
    1W        W37605  17.186   3.292   8.983 -0.0670 -0.0073  0.0697
    1W        W37606  21.152  29.530   1.204 -0.3899 -0.1704 -0.1210
    1W        W37607  17.936  12.031   0.312 -0.0996  0.2091  0.0520
    1W        W37608  15.599  20.949   6.544 -0.3782  0.1835 -0.1389
    1W        W37609   8.163   3.979   1.241 -0.2496 -0.1587  0.2868
    1W        W37610  23.137  20.223   1.985 -0.0250  0.1575 -0.1708
    1W        W37611  10.237  14.257   0.736  0.0543 -0.1671 -0.0855
    1W        W37612   4.542  26.415   7.577  0.2394  0.0501 -0.0222
    1W        W37613  28.735  28.471   7.988 -0.0588 -0.0304  0.3358
    1W        W37614  15.832  25.279   6.298  0.0421  0.2674  0.1831
    1W        W37615   4.003   5.307   1.745  0.0024  0.1654  0.2197
    1W        W37616   4.453   2.023   0.584  0.1899  0.0730 -0.0881
    1W        W37617   7.047  21.081   7.094 -0.2164  0.0578  0.0068
    1W        W37618   2.401   6.116   8.872 -0.1422  0.2472 -0.1985
    1W        W37619   7.273  19.882   7.424 -0.0626  0.1327  0.0071
    1W        W37620  29.567  21.738   0.119 -0.1129  0.1454  0.1062
    1W        W37621  11.862   0.401   9.269  0.1193  0.0189  0.2173
    1W        W37622  20.728   6.137   0.475 -0.1436  0.1881 -0.0561
    1W        W37623   9.722   6.273   1.946 -0.0348 -0.0058  0.0543
    1W        W37624  24.271  14.902   2.217 -0.4687  0.1968  0.1985
    1W        W37625   5.849  14.363   0.109 -0.1660 -0.1720 -0.0830
    1W        W37626  10.061   8.767   8.268 -0.0058  0.1281  0.1579
    1W        W37627  25.407   5.757   2.121  0.0461  0.0780 -0.1930
    1W        W37628  14.642  16.085   9.445  0.0347  0.0916 -0.2643
    1W        W37629   8.645   8.756   8.019  0.0825  0.0933 -0.2204
    1W        W37630   7.905  18.383   0.735 -0.1129  0.1434  0.1007
    1W        W37631  29.322  14.528   8.323 -0.0931 -0.5330 -0.1643
    1W        W37632  28.766  15.638   1.464 -0.0162  0.0794  0.2505
    1W        W37633  26.937   7.756   9.442 -0.0255 -0.1203 -0.0019
    1W        W37634  10.741  14.659   6.416  0.2967  0.2425 -0.0363
    1W        W37635  27.845  24.858   2.087 -0.2802  0.1534  0.2476
    1W        W37636  16.068  16.325   0.805  0.4294  0.0759  0.1432
    1W        W37637  15.786   7.029   8.495 -0.2814  0.2678  0.3059
    1W        W37638   2.395   1.356   2.150 -0.0300 -0.3786 -0.0994
    1W        W37639  27.603   0.889   2.778  0.1218 -0.2184 -0.2115
    1W        W37640   4.682  16.512   1.701  0.0490  0.0862  0.3864
    1W        W37641  20.886  25.926   2.108 -0.2922  0.1393  0.3616
    1W        W37642  25.998   7.283   2.301 -0.0802 -0.2751  0.1483
    1W        W37643  12.424  28.210   0.575  0.0409 -0.1499  0.0700
    1W        W37644  11.357   4.026   2.674  0.1313  0.0593  0.1303
    1W        W37645  11.529  28.312   1.182 -0.1322 -0.1112 -0.2161
    1W        W37646  20.982   4.211   4.024  0.0154 -0.1629  0.0430
    1W        W37647  26.649   1.713   0.746 -0.1120  0.1565 -0.0441
    1W        W37648  10.813  19.116   1.497  0.0796 -0.5665 -0.0892
    1W        W37649  15.395   8.264   1.126 -0.1439 -0.0014 -0.0067
    1W        W37650   7.130   3.507   6.906  0.0524  0.2500 -0.1072
    1W        W37651  17.765   0.343   9.047 -0.0360 -0.4147  0.0059
    1W        W37652  14.674  24.006   9.389  0.0010  0.3630 -0.2770
    1W        W37653   9.679  22.967   8.850 -0.1621  0.1839 -0.0589
    1W        W37654   8.985  21.192   9.260 -0.1146  0.1841  0.1587
    1W        W37655   0.494  22.375   1.104  0.1496  0.0280  0.0492
    1W        W37656  14.209  24.512   8.696  0.1953  0.0473 -0.1870
    1W        W37657  11.084  27.867   7.811 -0.2749  0.0653  0.2456
    1W        W37658  18.460  20.471   7.548  0.2904  0.0431 -0.0478
    1W        W37659   1.071   8.212   6.826  0.1159 -0.1512  0.2481
    1W        W37660  27.916  25.700   8.310  0.3795  0.4272  0.1717
    1W        W37661   5.142  20.995   7.928 -0.0941  0.1402  0.0378
    1W        W37662  26.703   2.172   2.071  0.4498 -0.0543  0.1446
    1W        W37663  26.212   6.111   7.484  0.0196 -0.0185  0.0385
    1W        W37664   6.812  15.843   1.674  0.1049 -0.0814  0.1680
    1W        W37665  12.816  25.544   6.281 -0.0266  0.0883  0.0634
    1W        W37666  10.370  16.573   6.948 -0.0382 -0.2812 -0.0228
    1W        W37667  15.656  20.396   5.285  0.1868  0.0035  0.1211
    1W        W37668  27.237  11.061   1.575  0.1766 -0.1334  0.2364
    1W        W37669  26.693   7.897   7.978 -0.0536  0.2099  0.1534
    1W        W37670   1.150  14.205   0.196 -0.1919  0.1006  0.1064
    1W        W37671  27.783  14.369   2.820 -0.0494  0.0493  0.2868
    1W        W37672  10.029  14.446   7.929 -0.0228 -0.1372 -0.1323
    1W        W37673  24.819   7.110   9.393  0.1589 -0.0204  0.1079
    1W        W37674  25.543  26.336   6.922 -0.0614  0.0256 -0.0907
    1W        W37675  13.672   6.318   9.421 -0.0572  0.1864 -0.1096
    1W        W37676   3.568   7.565   1.589 -0.0714  0.0891  0.0743
    1W        W37677  11.620  14.653   7.020  0.0942  0.0947  0.0579
    1W        W37678   8.730  16.166   6.747  0.0542 -0.2636 -0.2879
    1W        W37679   1.149  25.872   0.237 -0.1446  0.0809 -0.0296
    1W        W37680  21.165  20.316   0.519 -0.0490  0.0460  0.2606
    1W        W37681  12.984   1.373   0.373 -0.0809  0.1399 -0.4082
    1W        W37682  26.489  12.867   7.624 -0.0397  0.0750  0.1650
    1W        W37683   0.868   1.750   6.734  0.0253 -0.2115 -0.1806
    1W        W37684   1.468  22.618   8.250 -0.1140 -0.1384 -0.4769
    1W        W37685  23.415  24.092   0.413  0.0399 -0.0625  0.1362
    1W        W37686   5.745  19.820   7.172 -0.1312  0.3275  0.0204
    1W        W37687  18.609  28.123   1.453  0.1337 -0.0600 -0.1395
    1W        W37688   2.353  17.760   1.635  0.1200  0.0759  0.3276
    1W        W37689  23.713   5.635   1.555  0.2694  0.0638 -0.1574
    1W        W37690   2.029  10.709   2.384 -0.1215  0.1978 -0.1451
    1W        W37691  28.129  19.508   1.789 -0.1360 -0.1342 -0.1335
    1W        W37692   2.064  24.059   8.327  0.0008 -0.0934  0.1951
    1W        W37693  13.385  29.642   8.756  0.1791  0.4374  0.0791
    1W        W37694  14.865  26.840   1.059 -0.0715  0.1057 -0.0653
    1W        W37695  26.279   7.968   7.659 -0.0693 -0.1826 -0.1680
    1W        W37696   5.972   1.874   1.756  0.0267 -0.0495 -0.0806
    1W        W37697  26.990  21.511   7.796 -0.1238 -0.2677  0.0991
    1W        W37698   9.261  27.769   8.552 -0.2506  0.0982  0.1364
    1W        W37699  12.302  27.619   8.151 -0.1454  0.1430  0.0360
    1W        W37700  24.182  12.534   0.894  0.0690  0.1097  0.0554
    1W        W37701  19.575   6.020   0.269 -0.1169  0.0795  0.1570
    1W        W37702   1.558  24.709   6.362 -0.1339  0.2466  0.2436
    1W        W37703  20.142  24.804   6.425 -0.0056 -0.1554  0.1295
    1W        W37704  28.587   6.212   7.764  0.0443  0.2946 -0.0958
    1W        W37705   0.784   1.293   6.519 -0.0758 -0.1075 -0.0711
    1W        W37706  11.723   6.582   7.686  0.0401  0.2864 -0.2053
    1W        W37707   9.440  14.167   8.622  0.2234  0.0592 -0.2232
    1W        W37708  29.124  26.119   2.255  0.1379 -0.1831 -0.1325
    1W        W37709  21.781  12.839   0.881  0.0317  0.1160  0.1626
    1W        W37710   0.919   3.648   9.201  0.2113 -0.0147 -0.2145
    1W        W37711   6.425   4.781   1.896  0.1022 -0.1773  0.4195
    1W        W37712  10.266  13.238   1.071 -0.0212 -0.1014 -0.2023
    1W        W37713  11.471  14.596   0.863 -0.1004 -0.0360  0.0346
    1W        W37714  14.914  17.430   0.772 -0.1201  0.0155 -0.1702
    1W        W37715   6.445   2.185   7.304 -0.0782 -0.0404  0.2873
    1W        W37716  19.417  14.860   0.363  0.0862 -0.1970  0.3984
    1W        W37717  19.495  14.178   1.589 -0.2565  0.0096  0.0602
    1W        W37718  29.383  26.808   9.201  0.3443  0.1541  0.1327
    1W        W37719   8.991   9.743   2.726 -0.3850  0.0355 -0.1779
    1W        W37720   4.119  18.182   5.998  0.2015 -0.4393  0.0597
    1W        W37721   1.435  11.773   7.571 -0.1354  0.0690 -0.0425
    1W        W37722  22.315  15.052   6.433  0.3378 -0.0169 -0.2319
    1W        W37723  16.510  15.256   0.469 -0.0521 -0.3197 -0.1198
    1W        W37724   8.459  11.413   7.247  0.0465 -0.0640  0.0814
    1W        W37725  25.867   0.176   2.987  0.0617  0.0980 -0.0175
    1W        W37726  17.208  24.448   6.071  0.3821  0.1164 -0.0482
    1W        W37727  12.202  22.767   5.989  0.1099 -0.2596  0.3680
    1W        W37728   0.768  23.011   7.035 -0.0788 -0.1148  0.3197
    1W        W37729  14.786   8.842   8.412  0.1071 -0.2489  0.0725
    1W        W37730  20.898   6.964   2.977  0.1798 -0.1292 -0.0666
    1W        W37731  29.479  28.049   6.851  0.1419  0.0272 -0.2602
    1W        W37732  15.322  26.244   0.638  0.1189  0.0296 -0.1487
    1W        W37733   7.918  23.878   1.260  0.1128  0.2799  0.1034
    1W        W37734   4.806   7.131   0.218  0.1093  0.3557  0.1636
    1W        W37735  20.118  26.802   7.942  0.2650  0.0711 -0.1102
    1W        W37736  13.367   9.028   0.897 -0.2749  0.1480  0.1062
    1W        W37737   4.236  26.410   6.702  0.3545  0.1926  0.0221
    1W        W37738   0.240   2.572   6.550  0.3052 -0.0066 -0.0681
    1W        W37739  10.336  19.410   8.602  0.1991 -0.1643 -0.1903
    1W        W37740  19.418   4.387   0.876  0.0207  0.1826 -0.0962
    1W        W37741   7.972  25.200   6.837  0.2127  0.0167  0.4670
    1W        W37742   5.417  14.699   8.717  0.1267 -0.2474  0.4079
    1W        W37743  13.021   5.129   7.958  0.3371  0.2470  0.4214
    1W        W37744  19.937  24.012   8.022  0.4151  0.1938 -0.2619
    1W        W37745  17.954  27.148   7.927 -0.3117 -0.0430 -0.1704
    1W        W37746   0.381  22.956   8.169  0.0228 -0.0293  0.1332
    1W        W37747   9.647  21.980   6.090 -0.2013 -0.1798 -0.0341
    1W        W37748  11.233  26.883   7.412 -0.1580 -0.1726 -0.1626
    1W        W37749  23.909   2.354   0.793  0.0742  0.1360 -0.0139
    1W        W37750   1.884  17.954   3.323  0.2434  0.0074 -0.2180
    1W        W37751  24.347  13.626   8.483 -0.1897 -0.0997  0.2351
    1W        W37752   4.675  12.563   8.527 -0.2291 -0.2311  0.1989
    1W        W37753  12.318  23.712   0.012  0.1074  0.1060 -0.0467
    1W        W37754   6.604   8.247   2.738 -0.3330  0.0882  0.0653
    1W        W37755  18.975   0.544   2.980 -0.2014  0.0868  0.3328
    1W        W37756  16.268  16.811   7.224 -0.0874 -0.1384  0.1863
    1W        W37757  21.593   8.965   0.974  0.0741  0.1323  0.3569
    1W        W37758  20.805   9.511   2.503  0.0675 -0.0960  0.2973
    1W        W37759   5.178  21.732   1.459  0.2624 -0.2584 -0.0651
    1W        W37760  16.420  27.362   0.142  0.0128  0.1429 -0.0182
    1W        W37761  13.976  11.936   8.867  0.0137  0.0071  0.6298
    1W        W37762   0.419  21.125   7.893 -0.0695  0.1250 -0.1957
    1W        W37763  25.238  20.467   9.478 -0.1049  0.1867 -0.1364
    1W        W37764  28.652  22.815   1.583 -0.1845  0.4460  0.0957
    1W        W37765  13.088  16.607   8.359 -0.0816  0.1522 -0.1029
    1W        W37766   1.030   9.783   7.192 -0.0023  0.0275  0.2337
    1W        W37767   0.102   6.751   6.953  0.1231 -0.0134 -0.0152
    1W        W37768  26.471  29.329   0.273  0.0358  0.1219 -0.2416
    1W        W37769  27.524  25.989   0.126 -0.0537 -0.0302  0.0429
    1W        W37770  12.362  16.759   7.537  0.0053  0.0299 -0.1786
    1W        W37771  19.322  26.460   9.129  0.2021  0.1511 -0.1629
    1W        W37772   2.790  19.143   1.202  0.1749 -0.0402 -0.2576
    1W        W37773   9.243  19.444   0.999  0.3644 -0.4262  0.0956
    1W        W37774  29.176   2.419   6.657  0.0473 -0.0413 -0.0227
    1W        W37775   3.011  25.490   2.032 -0.0648 -0.3388 -0.0434
    1W        W37776   0.080   8.274   6.271  0.0805  0.0687  0.0729
    1W        W37777  26.720   5.386   0.566  0.1128 -0.0007 -0.1587
    1W        W37778  12.045  28.005   7.052 -0.3555 -0.0429  0.0357
    1W        W37779  29.384   2.818   6.809  0.1573  0.0092 -0.2902
    1W        W37780   3.419  24.733   2.160 -0.0000 -0.3439 -0.2448
    1W        W37781   2.840   1.246   7.783  0.1121 -0.2193 -0.0309
    1W        W37782  25.772  23.424   9.386 -0.1187  0.3467  0.1730
    1W        W37783  16.754  24.371   6.719 -0.1356  0.0613 -0.1692
    1W        W37784  15.505   0.409   8.406 -0.4053 -0.2630 -0.0452
    1W        W37785  26.719  11.489   6.965  0.5903  0.1244  0.1359
    1W        W37786  24.915  18.610   9.289  0.1890  0.0083  0.2054
    1W        W37787  13.736  19.885   1.996 -0.0216 -0.2510 -0.2383
    1W        W37788   6.023  16.411   7.536 -0.1697 -0.0575 -0.0778
    1W        W37789   8.538  18.934   6.378 -0.0285 -0.0551  0.0037
    1W        W37790   5.181  22.396   5.557 -0.1903 -0.1609  0.1558
    1W        W37791  24.665  23.017   1.215 -0.2155 -0.0441 -0.0682
    1W        W37792   2.650   5.484   2.464  0.2118  0.1581 -0.1767
    1W        W37793  19.612  18.444   1.568 -0.0381  0.0563 -0.0360
    1W        W37794   6.582  28.732   8.634 -0.0896 -0.0299 -0.0555
    1W        W37795   5.382   7.950   1.785  0.2103  0.1553  0.0680
    1W        W37796  13.227  24.620   0.028 -0.3840 -0.1348 -0.3289
    1W        W37797   8.571  15.640   3.272 -0.1379  0.1508  0.2866
    1W        W37798  27.563   1.043   1.561  0.1622  0.2554  0.1783
    1W        W37799   6.763  18.069   9.073 -0.2139  0.0949  0.0594
    1W        W37800  11.301   1.156   0.366 -0.1449  0.1472  0.0754
    1W        W37801  20.779  17.497   1.850  0.1342  0.1890  0.2022
    1W        W37802  15.638  15.539   0.884 -0.0415 -0.4036 -0.0166
    1W        W37803  23.822  21.000   7.677  0.0950  0.2206  0.0656
    1W        W37804   2.567   0.312   7.094  0.0040 -0.3942  0.3632
    1W        W37805  26.542  21.428   2.405  0.2822 -0.2840 -0.0523
    1W        W37806   6.749  20.792   9.173  0.2547 -0.0070  0.0155
    1W        W37807  12.045  10.757   7.046  0.2315  0.0181  0.0332
    1W        W37808   8.249  23.716   2.276 -0.0287 -0.0870 -0.0649
    1W        W37809   5.196  27.842   1.732  0.0458 -0.0788 -0.2383
    1W        W37810  12.310   1.260   2.941  0.0451 -0.1281  0.3523
    1W        W37811   9.221   0.874   7.617 -0.2604  0.0058  0.0348
    1W        W37812  25.435  20.467   8.364 -0.1522 -0.1765 -0.1217
    1W        W37813   1.727  15.779   7.531 -0.2976 -0.0227 -0.2155
    1W        W37814  19.971  15.486   0.876 -0.1057  0.0308  0.3115
    1W        W37815  29.796  20.794   2.509 -0.2513 -0.1752  0.3293
    1W        W37816  22.825  10.093   9.492  0.4390 -0.1375 -0.1463
    1W        W37817   3.278  24.027   9.127  0.0473 -0.0969  0.1933
    1W        W37818  20.863  19.154   1.523 -0.1857  0.1635  0.0989
    1W        W37819   9.392   7.458   8.839 -0.2562 -0.0698 -0.0304
    1W        W37820  20.055  12.743   7.670  0.1253 -0.0327 -0.2184
    1W        W37821  22.638  23.596   2.152 -0.0747 -0.3067 -0.0478
    1W        W37822   5.039   4.748   1.059  0.2327  0.0917  0.3869
    1W        W37823  27.314  29.015   0.163 -0.0115 -0.1195 -0.1717
    1W        W37824   7.888  10.782   6.369 -0.1180 -0.1937  0.2713
    1W        W37825  15.034  21.322   7.098  0.0830 -0.0875  0.0396
    1W        W37826   1.008   1.483   2.200 -0.2565 -0.0008 -0.1525
    1W        W37827  15.094  20.764   7.749  0.0301  0.3273  0.0866
    1W        W37828   7.226  25.025   8.894  0.3930  0.2619  0.2675
    1W        W37829  14.996   5.765   0.705  0.1791 -0.2217  0.0145
    1W        W37830  11.242  26.644   1.018  0.1952  0.0222 -0.2187
    1W        W37831  28.525  21.763   7.348  0.1394  0.0900  0.1435
    1W        W37832  20.753  19.861   7.947  0.0621 -0.1390  0.1191
    1W        W37833   9.741  25.271   9.252  0.0989 -0.4600 -0.1141
    1W        W37834   8.311  10.692   2.931 -0.0644 -0.1090 -0.1569
    1W        W37835  22.958   2.097   1.500 -0.1108 -0.0999 -0.0699
    1W        W37836  27.872   3.303   1.739 -0.4095  0.1018 -0.0463
    1W        W37837  23.230  16.633   7.237 -0.1605 -0.0159 -0.0909
    1W        W37838   1.615  27.484   6.329  0.1886  0.2546  0.1460
    1W        W37839   8.493   4.278   7.806 -0.0725  0.0540 -0.0641
    1W        W37840  10.816   3.262   7.341  0.0974 -0.0070 -0.1933
    1W        W37841   9.514  17.439   8.717  0.0295 -0.4481 -0.0571
    1W        W37842   2.265  23.673   0.253  0.3548  0.3332  0.1615
    1W        W37843   2.965  11.451   1.647 -0.0210  0.0420 -0.0419
    1W        W37844   3.384   0.117   7.671  0.0190  0.0664  0.0935
    1W        W37845   6.757   7.365   7.240  0.0188  0.0482  0.1810
    1W        W37846  11.439  16.407   0.382 -0.4425 -0.0853 -0.2246
    1W        W37847  27.362  17.138   8.650 -0.0747 -0.0386  0.1445
    1W        W37848   9.878  23.497   6.938 -0.1779  0.0831 -0.2096
    1W        W37849  12.988  23.869   7.467  0.1381  0.1207 -0.1489
    1W        W37850   8.130  19.604   6.938 -0.1418  0.0421  0.1240
    1W        W37851  23.980   6.936   1.216 -0.0952  0.1395 -0.1388
    1W        W37852  21.079  10.240   7.739  0.0016 -0.2428  0.0918
    1W        W37853  29.279   2.157   8.107  0.0042 -0.0028 -0.0565
    1W        W37854  29.644   5.670   7.313 -0.0949 -0.2513 -0.0605
    1W        W37855  20.132  25.431   1.718 -0.0148 -0.0664 -0.3735
    1W        W37856  17.699  20.333   6.655  0.1016  0.0474 -0.2447
    1W        W37857   1.675   6.782   8.723  0.1843  0.0661 -0.2973
    1W        W37858  28.266   5.495   9.115  0.1033 -0.2271 -0.2147
    1W        W37859  28.811  12.760   1.559 -0.0287  0.1361  0.0521
    1W        W37860  24.449  26.060   2.408  0.0891 -0.0225 -0.0358
    1W        W37861   2.286  20.095   0.938  0.1963 -0.1645 -0.2244
    1W        W37862   1.201  16.731   8.789  0.1073  0.0449 -0.1354
    1W        W37863   0.642   9.578   9.444  0.0376  0.2845 -0.3657
    1W        W37864  15.600   7.510   3.596  0.0129  0.1304  0.2685
    1W        W37865  12.515   5.241   4.207  0.4651  0.4515  0.1540
    1W        W37866  28.458   0.898   0.009  0.0506 -0.0009 -0.1000
    1W        W37867   9.740  25.247   6.790 -0.1829  0.2016 -0.0525
    1W        W37868   4.313   4.433   1.490  0.1929  0.0611 -0.4018
    1W        W37869   8.048  13.749   2.361  0.2345 -0.2038  0.2178
    1W        W37870  28.993   9.629   1.774  0.0778  0.1199 -0.0503
    1W        W37871   6.353  26.215   8.809  0.0599  0.2155  0.1695
    1W        W37872   8.659  26.983   2.850 -0.0003  0.1839 -0.0183
    1W        W37873  25.831  26.782   8.283 -0.1589 -0.2561 -0.2008
    1W        W37874   5.439   7.286   7.183 -0.3784 -0.1756 -0.1061
    1W        W37875  22.334  14.399   2.402 -0.0860  0.0904  0.1380
    1W        W37876   7.836  19.277   6.643 -0.0144  0.3274 -0.0667
    1W        W37877   5.401  12.516   6.527  0.1889  0.1224  0.1136
    1W        W37878   4.695  21.617   7.764  0.1588  0.2450  0.0000
    1W        W37879  15.163  13.858   8.233 -0.1726  0.1641  0.0093
    1W        W37880  11.079  13.632   7.127 -0.0835 -0.0378  0.1601
    1W        W37881   1.944  25.650   8.514 -0.0576  0.2833  0.0868
    1W        W37882   1.278   0.175   0.624 -0.0995 -0.1894  0.3288
    1W        W37883   9.751   3.990   2.643  0.3212  0.3078  0.3050
    1W        W37884   6.765   9.233   8.996  0.1934 -0.0487  0.2887
    1W        W37885  17.567  11.220   1.643 -0.0469  0.1070 -0.0876
    1W        W37886  10.673  15.395   7.006 -0.0781  0.0296  0.0362
    1W        W37887   6.746  23.160   8.033 -0.1308 -0.1813  0.0493
    1W        W37888   8.317   4.386   9.199 -0.1301  0.2017  0.0819
    1W        W37889   8.492  17.433   9.211 -0.2016 -0.2006 -0.1944
    1W        W37890  15.323  21.134   7.417  0.0032  0.0085  0.0478
    1W        W37891  18.085  23.216   8.106 -0.0736  0.1517 -0.1580
    1W        W37892   0.682  26.911   7.733 -0.0656  0.2437 -0.1151
    1W        W37893  26.106  13.242   1.603  0.0023 -0.0439 -0.0372
    1W        W37894  12.328   6.396   0.360  0.0264 -0.2479 -0.2131
    1W        W37895  19.677  22.219   6.090  0.1320 -0.0379 -0.0817
    1W        W37896  19.556  26.586   7.770 -0.0903 -0.2622  0.1893
    1W        W37897  20.197  10.733   2.394 -0.0351  0.0586  0.0199
    1W        W37898   8.551  17.291   8.208  0.0419 -0.1330 -0.3046
    1W        W37899   3.336  13.893   7.013 -0.0896  0.0197 -0.2807
    1W        W37900   4.931  20.483   2.399  0.0213 -0.1671  0.0857
    1W        W37901   0.588  24.866   8.973 -0.3050 -0.3236  0.3693
    1W        W37902  20.432  11.020   7.803  0.2443 -0.1082 -0.1006
    1W        W37903  27.988  21.293   1.676  0.0892  0.2383 -0.2191
    1W        W37904  15.495   2.064   3.797  0.2135  0.1395 -0.2755
    1W        W37905   7.679  13.968   7.897 -0.2887 -0.0105 -0.2007
    1W        W37906  25.689  10.676   8.965 -0.1974  0.0230 -0.2465
    1W        W37907  10.808  12.607   2.198  0.4493  0.1387  0.1432
    1W        W37908  21.097  13.555   1.209  0.1432  0.0184  0.2146
    1W        W37909  27.657  28.873   6.016  0.3046  0.0833  0.0837
    1W        W37910  10.692  28.600   7.312 -0.1345 -0.0332  0.0709
    1W        W37911  24.683  29.126   6.720  0.3072 -0.1094  0.0979
    1W        W37912  24.550  18.104   7.967  0.0485  0.2153 -0.0396
    1W        W37913  29.276  19.508   0.764  0.4080  0.1603  0.0918
    1W        W37914  21.635  21.440   7.080 -0.3719  0.1491 -0.0906
    1W        W37915   7.717  13.800   0.688  0.2250  0.0096 -0.0158
    1W        W37916  26.475  20.522   2.591 -0.0456  0.0150 -0.1524
    1W        W37917   6.028  22.207   6.737 -0.1150 -0.4258 -0.0404
    1W        W37918  29.087  27.722   0.909  0.1923 -0.0290  0.3115
    1W        W37919   3.774  17.146   7.541  0.3630  0.2207  0.1118
    1W        W37920  17.570  28.972   1.321  0.2539 -0.1806 -0.0164
    1W        W37921  12.496  12.916   5.920  0.0886 -0.0177  0.6188
    1W        W37922   0.687  26.490   8.642  0.1015 -0.2252 -0.2244
    1W        W37923  13.577  12.154   8.525  0.0235  0.1563 -0.0078
    1W        W37924  13.051  21.225   1.232 -0.0788 -0.3887 -0.1120
    1W        W37925  24.531  20.572   8.237 -0.1497 -0.1654  0.2282
    1W        W37926  14.635  21.123   7.974 -0.2372 -0.2093  0.2425
    1W        W37927   2.000  10.734   2.893 -0.1579 -0.1118 -0.1387
    1W        W37928   9.626   7.222   2.217 -0.1379  0.0306  0.4472
    1W        W37929  17.902  22.958   6.496 -0.1603 -0.1443 -0.0068
    1W        W37930  24.370  17.895   1.859  0.0561  0.3802  0.1660
    1W        W37931   1.491  19.012   9.215  0.0678 -0.3693  0.0736
    1W        W37932  10.301  27.317   2.378 -0.0618 -0.3586  0.0082
    1W        W37933   8.352  19.219   8.108  0.1594 -0.1383  0.3476
    1W        W37934   0.340  29.014   1.893  0.0533 -0.0897 -0.0057
    1W        W37935  19.006   5.033   2.477  0.0788 -0.0990 -0.2873
    1W        W37936   6.748  20.734   8.601 -0.2318 -0.1332 -0.0910
    1W        W37937  20.821  15.319   0.061 -0.0047  0.0063 -0.3235
    1W        W37938  27.053  18.931   7.738  0.0644 -0.2186  0.0225
    1W        W37939   2.821  14.777   0.138  0.0170  0.0517  0.1506
    1W        W37940  19.728   4.913   8.073 -0.3723  0.0141  0.0859
    1W        W37941  10.529  22.810   1.605 -0.0111 -0.1572  0.1288
    1W        W37942  28.849  21.334   7.282  0.0971 -0.1531 -0.0522
    1W        W37943  22.431  10.635   7.460 -0.2447  0.0866  0.0143
    1W        W37944   1.639   9.947   8.999  0.2211 -0.0134  0.1320
    1W        W37945  27.880   0.594   7.412  0.0737 -0.0399 -0.0386
    1W        W37946  12.190   0.187   8.152 -0.2777 -0.0332 -0.0844
    1W        W37947  27.998   9.538   6.365 -0.1742 -0.1643 -0.0647
    1W        W37948  25.383  18.160   1.099 -0.1023  0.0776 -0.4308
    1W        W37949  28.285  27.232   9.095  0.2050  0.1994 -0.2048
    1W        W37950  25.663  13.562   0.710 -0.3640 -0.0312 -0.1572
    1W        W37951  18.710   6.113   0.631  0.1463  0.0454  0.3035
    1W        W37952  25.008   5.540   0.933 -0.1850  0.2576 -0.1337
    1W        W37953  19.727  23.557   8.174  0.2669  0.0330  0.1994
    1W        W37954  29.642   1.336   7.716 -0.1277 -0.1402 -0.0116
    1W        W37955   8.625  26.182   6.185 -0.1722 -0.0279  0.1804
    1W        W37956  22.786  12.699   6.725 -0.1783 -0.2321 -0.0187
    1W        W37957  11.124  20.311   2.535 -0.1273  0.2431 -0.0738
    1W        W37958  21.841  25.684   0.192 -0.1104 -0.1789 -0.1102
    1W        W37959  10.749  24.937   0.176 -0.1441  0.2290 -0.0773
    1W        W37960  22.862   0.974   7.323  0.0141  0.0910 -0.3190
    1W        W37961   5.784   4.068   0.463  0.0662 -0.2874 -0.0802
    1W        W37962  26.202   4.072   1.792 -0.1095  0.3339 -0.0157
    1W        W37963   9.607  21.555   8.142  0.0237 -0.0405  0.4979
    1W        W37964  16.635   1.077   1.862 -0.4026 -0.1508  0.0004
    1W        W37965  10.016  29.846   6.896 -0.1037  0.1481  0.0244
    1W        W37966  21.053   2.786   0.603 -0.1287 -0.1504  0.1293
    1W        W37967  21.572  26.770   8.903  0.1013  0.0046  0.0319
    1W        W37968  12.766  26.282   7.072 -0.1469 -0.0111 -0.1364
    1W        W37969  10.750  25.154   7.297  0.0755  0.0053 -0.1235
    1W        W37970   4.906   6.813   7.761  0.1227 -0.1041 -0.1197
    1W        W37971  17.975  16.540   7.025 -0.1198 -0.1162 -0.1824
    1W        W37972  23.650  27.144   1.783  0.0336 -0.1428  0.0341
    1W        W37973   5.701  23.127   0.307 -0.2013  0.1778  0.0793
    1W        W37974  21.594  28.920   0.490 -0.1129  0.2332 -0.0586
    1W        W37975  26.270   7.467   1.019  0.0413  0.1287  0.0466
    1W        W37976  22.935  21.476   0.501 -0.2382  0.0019 -0.0350
    1W        W37977  26.751  21.964   2.682 -0.1713  0.1567 -0.1012
    1W        W37978  23.138  14.551   7.732 -0.2865  0.1130 -0.2705
    1W        W37979  19.382  23.635   6.255 -0.1004  0.0172 -0.2294
    1W        W37980   5.352   8.231   2.212 -0.2336 -0.0456 -0.1921
    1W        W37981  12.196  17.286   7.688  0.1428  0.3982 -0.1014
    1W        W37982  27.998  10.700   7.251 -0.1703  0.1808 -0.1211
    1W        W37983  11.887  20.385   0.834 -0.2573 -0.0741 -0.4059
    1W        W37984   1.588  26.277   6.515  0.1359  0.0297 -0.0967
    1W        W37985  19.885   5.702   3.481  0.1126  0.2512  0.0975
    1W        W37986   9.283   2.428   8.541  0.0763 -0.0356 -0.2572
    1W        W37987   9.523  23.679   1.966  0.0117  0.0321  0.0012
    1W        W37988  10.149  29.332   2.540  0.5080  0.3421  0.0218
    1W        W37989   7.283   0.992   0.185 -0.1023  0.3062  0.1902
    1W        W37990  23.219  12.349   0.764 -0.1546 -0.1512 -0.0232
    1W        W37991   6.234   6.781   6.833 -0.3125 -0.2374  0.1748
    1W        W37992   9.071  10.092   3.299 -0.0669 -0.1984 -0.0466
    1W        W37993  19.035   9.865   0.622 -0.1090  0.1847 -0.0518
    1W        W37994  13.707  16.458   6.478 -0.0816 -0.0216 -0.1684
    1W        W37995   5.554  22.953   7.646 -0.1591  0.1185 -0.2792
    1W        W37996   2.838   8.764   6.231 -0.2125 -0.2772  0.0623
    1W        W37997  19.627   4.973   3.290 -0.3537 -0.0423 -0.3388
    1W        W37998  16.100  12.784   1.513 -0.4697  0.0455  0.2016
    1W        W37999  17.051  19.659   9.503 -0.0291 -0.3641  0.0564
    1W        W38000  17.071  26.236   0.755  0.0300 -0.1394  0.2210
    1W        W38001  10.442  26.051   7.092 -0.1674 -0.2539 -0.0849
    1W        W38002   3.298  28.529   7.876 -0.0350 -0.1920 -0.1675
    1W        W38003   2.912   7.532   7.207 -0.0245 -0.2830 -0.1176
    1W        W38004  21.182  22.486   8.849  0.0439 -0.0421  0.3488
    1W        W38005  11.047   6.975   6.684 -0.3816 -0.0110 -0.1568
    1W        W38006  23.046  18.049   6.532  0.1150  0.2037  0.0768
    1W        W38007  14.336   0.934   2.438 -0.0450 -0.0768 -0.0141
    1W        W38008   8.361  17.419   8.688  0.1649  0.3099 -0.1282
    1W        W38009  11.513  11.775   8.730  0.1535 -0.1623 -0.3091
    1W        W38010  13.994  14.861   8.531  0.0295  0.3275 -0.1991
    1W        W38011  14.228   1.873   2.979  0.0231 -0.0585 -0.0813
    1W        W38012  27.008   6.323   8.655  0.1179 -0.0847  0.1377
    1W        W38013  24.099  16.725   9.161 -0.0037 -0.0092  0.0135
    1W        W38014  18.859  29.369   9.414 -0.0309 -0.1734 -0.1717
    1W        W38015  27.382   5.726   6.573  0.0325  0.1316  0.1379
    1W        W38016  17.181  22.375   0.177 -0.0788 -0.2146 -0.1960
    1W        W38017   4.890   6.853   6.750  0.2512 -0.4268  0.1075
    1W        W38018  15.545  18.652   7.394 -0.3245 -0.0060  0.0961
    1W        W38019  22.073   9.680   8.536  0.1923  0.1702  0.0365
    1W        W38020  15.630  24.910   6.104  0.0784  0.0469 -0.1841
    1W        W38021   1.827  19.546   7.263 -0.0835  0.2266  0.1162
    1W        W38022  25.977   7.256   0.669  0.1496  0.0703 -0.3473
    1W        W38023   9.446   5.830   7.877  0.1961 -0.0070  0.0143
    1W        W38024  14.941   4.809   2.186 -0.0535 -0.3300  0.0161
    1W        W38025   8.410   9.214   7.393  0.0223 -0.1203  0.0831
    1W        W38026  26.287   9.507   8.260 -0.2474 -0.2324  0.2503
    1W        W38027  22.354  20.460   6.377  0.2452 -0.1233  0.2989
    1W        W38028   1.186   1.923   7.578 -0.1799 -0.1033  0.0591
    1W        W38029  21.526   7.430   3.289  0.2656  0.0107  0.1451
    1W        W38030   3.066   5.771   7.185  0.2371 -0.0856  0.0161
    1W        W38031  17.160   6.529   0.306 -0.0593  0.0762 -0.1772
    1W        W38032  19.011  17.440   2.225  0.0896  0.0974 -0.2293
    1W        W38033   6.295   3.017   9.308 -0.2060  0.1309  0.0702
    1W        W38034  11.896  27.579   7.314 -0.0254 -0.0664  0.0088
    1W        W38035  26.156  15.584   7.625 -0.2011 -0.1318 -0.0014
    1W        W38036   4.220  15.609   7.505 -0.0718  0.1966  0.1855
    1W        W38037  24.971   2.248   9.295 -0.0378 -0.2521  0.1226
    1W        W38038  28.344   5.810   8.734 -0.2060  0.1265  0.0521
    1W        W38039  25.611  15.895   2.276  0.1976  0.1715 -0.1304
    1W        W38040  11.269  22.605   7.943  0.0701 -0.0503  0.1455
    1W        W38041   1.962   7.062   1.370 -0.1343  0.0761 -0.2925
    1W        W38042  29.721  11.810   2.114 -0.1987 -0.3895 -0.0538
    1W        W38043   5.265  17.914   5.893 -0.2488  0.1002  0.1209
    1W        W38044  13.324   1.996   2.289  0.2037 -0.1719  0.3746
    1W        W38045   9.206  12.749   8.262 -0.0235 -0.3007 -0.1762
    1W        W38046  14.877   1.789   9.047 -0.3359  0.1165  0.1815
    1W        W38047  22.666  13.976   1.699  0.0299  0.1863  0.2191
    1W        W38048   8.055  19.190   7.311 -0.0110 -0.0198 -0.0545
    1W        W38049  29.655   8.093   1.484 -0.2640 -0.0099 -0.0203
    1W        W38050  16.613  19.759   6.213 -0.1972 -0.0538  0.1467
    1W        W38051  28.374  17.630   1.553 -0.1787 -0.3469  0.0169
    1W        W38052   6.918  29.788   7.390 -0.0151 -0.0526 -0.3590
    1W        W38053  12.762   0.584   7.039 -0.3731 -0.1727  0.2974
    1W        W38054   7.789  13.307   8.776 -0.1840 -0.1511 -0.1990
    1W        W38055  13.310   9.449   7.343  0.3510 -0.2391  0.1971
    1W        W38056  23.108  26.575   2.357  0.0394  0.1366 -0.2205
    1W        W38057  19.151  17.679   1.774  0.2874 -0.1439  0.0680
    1W        W38058   7.269   4.003   3.342  0.3502 -0.1015 -0.3787
    1W        W38059   6.466   9.529   2.002  0.2224 -0.0988 -0.2256
    1W        W38060   2.812  13.171   8.661 -0.0536  0.2956  0.0064
    1W        W38061  10.931  14.976   1.957 -0.0150  0.1569  0.1533
    1W        W38062  20.464  22.997   7.225 -0.0860 -0.0416  0.0358
    1W        W38063   2.144  20.431   9.205 -0.0089  0.1100 -0.0351
    1W        W38064  26.647   2.145   0.540 -0.2025 -0.2191 -0.0336
    1W        W38065  14.210   8.220   8.494  0.2488 -0.0678  0.3602
    1W        W38066  14.763  24.966   1.788  0.0476  0.0589 -0.0832
    1W        W38067  22.479  27.269   8.917  0.2632  0.1065 -0.0807
    1W        W38068   4.275   9.863   7.331 -0.0536  0.1590  0.0505
    1W        W38069  11.791  10.673   0.222  0.0196 -0.2035 -0.0402
    1W        W38070  17.362   4.470   3.016 -0.1766 -0.0586  0.3871
    1W        W38071  17.767  29.082   8.570 -0.2306  0.0351 -0.1604
    1W        W38072   6.509  19.317   7.028  0.1552 -0.0080 -0.1695
    1W        W38073  16.549   3.065   0.041  0.2727  0.1140  0.0486
    1W        W38074  19.902   2.231   0.220 -0.0101  0.3565 -0.0190
    1W        W38075  25.393  26.795   5.688  0.0202 -0.0618 -0.0823
    1W        W38076  29.021   7.215   3.275  0.1663  0.0861 -0.0661
    1W        W38077   2.455  27.371   1.690 -0.0213  0.2324  0.1354
    1W        W38078  12.819  23.073   1.141 -0.0369 -0.1757 -0.1425
    1W        W38079  22.540   1.907   1.386 -0.2145  0.1489 -0.1198
    1W        W38080   9.478   1.883   3.329 -0.0233  0.4768 -0.2816
    1W        W38081  27.197   4.770   7.928 -0.1750 -0.0084  0.1877
    1W        W38082  16.447  11.667   0.805  0.1890 -0.2360  0.3320
    1W        W38083   9.999  13.082   6.785 -0.1215  0.0120  0.0609
    1W        W38084   4.171  10.624   9.207  0.1169  0.1606 -0.0632
    1W        W38085   0.885  27.432   8.167 -0.2419  0.2075 -0.5027
    1W        W38086   8.240   5.906   1.739 -0.0087 -0.1350 -0.1751
    1W        W38087  26.611   8.888   1.936 -0.2237  0.1365 -0.0881
    1W        W38088   8.269  28.783   0.028 -0.1137  0.0936  0.1975
    1W        W38089  22.244  24.865   8.579 -0.1385  0.0276 -0.2626
    1W        W38090  24.680  23.506   8.488  0.2583 -0.1976 -0.1139
    1W        W38091   0.742  19.117   1.211  0.3654 -0.3487  0.0206
    1W        W38092  11.740   0.312   8.051  0.0591  0.1697 -0.1414
    1W        W38093  26.258   8.565   9.303 -0.2432 -0.0322  0.1889
    1W        W38094  12.314  15.728   7.950 -0.1188  0.2044 -0.1274
    1W        W38095  16.555   2.441   2.917 -0.2919 -0.1792 -0.0110
    1W        W38096  22.918   0.310   8.761 -0.6965  0.1585 -0.0352
    1W        W38097  27.794  10.887   1.952 -0.3334  0.0811  0.2177
    1W        W38098  13.615   0.769   9.296  0.0419 -0.3997 -0.2958
    1W        W38099  26.793  18.273   0.381 -0.3644 -0.3433  0.0803
    1W        W38100   4.639  14.807   1.891  0.3128 -0.0389 -0.1144
    1W        W38101   7.669  20.571   9.119 -0.1320  0.0073 -0.2510
    1W        W38102  27.349  23.154   0.502  0.1527 -0.1328  0.2799
    1W        W38103   4.421   8.499   2.114 -0.1340 -0.1598 -0.1018
    1W        W38104  25.787  21.931   8.028  0.0655 -0.1763 -0.2029
    1W        W38105   2.495  11.168   1.753 -0.0532  0.1327  0.1728
    1W        W38106  13.540  22.151   5.168  0.1394  0.1441 -0.2603
    1W        W38107  13.733  23.534   5.792 -0.0511 -0.5632 -0.0146
    1W        W38108  17.836   1.322   0.493  0.0951 -0.1177 -0.0477
    1W        W38109  14.193  25.814   8.269  0.0657  0.0719 -0.2282
    1W        W38110   8.009   3.090   1.230 -0.1034 -0.0350  0.1306
    1W        W38111   2.846   6.594   1.923 -0.1565  0.0519 -0.2510
    1W        W38112   7.290   4.930   0.170  0.0950  0.0950  0.0927
    1W        W38113  14.436  13.178   8.041 -0.0341  0.1469 -0.2391
    1W        W38114  22.986  12.256   1.258  0.0546  0.2092  0.0892
    1W        W38115   2.286  29.249   1.224 -0.2617  0.1463 -0.3210
    1W        W38116   1.949   2.882   8.588  0.0260  0.1626  0.2268
    1W        W38117   8.206  25.207   0.928  0.1120 -0.4079  0.1676
    1W        W38118  14.685  13.660   7.905  0.0017  0.0423  0.1248
    1W        W38119  12.662   7.386   1.506  0.1317 -0.2396  0.0990
    1W        W38120   8.698   8.948   6.994 -0.0468  0.1097 -0.1318
    1W        W38121   9.109  18.125   6.601  0.2628 -0.1224 -0.0926
    1W        W38122   7.810  21.990   1.450  0.2179 -0.1086 -0.1397
    1W        W38123   9.220  15.489   2.123 -0.0869  0.0448 -0.0293
    1W        W38124   0.090  10.802   2.088  0.1406 -0.2821 -0.0532
    1W        W38125   9.662  19.100   7.010 -0.2158  0.0028  0.1363
    1W        W38126  16.899  29.713   2.342  0.4743 -0.1240  0.0783
    1W        W38127  19.979   4.342   0.969 -0.3388  0.0279  0.3279
    1W        W38128   2.949  23.252   0.271  0.1349 -0.0536 -0.0282
    1W        W38129   0.019   9.352   1.159  0.2159  0.1735 -0.0332
    1W        W38130   8.467  18.370   1.807  0.1199  0.1693  0.4235
    1W        W38131   4.349   1.003   6.271  0.2534 -0.1751  0.0604
    1W        W38132   9.114  19.219   1.941  0.1397  0.1651 -0.1327
    1W        W38133  10.006   7.245   1.468  0.1427 -0.1130  0.0619
    1W        W38134  13.559  10.101   1.772 -0.2038  0.1266 -0.1528
    1W        W38135   5.478   1.267   0.736 -0.1987  0.2037  0.0455
    1W        W38136  14.365  27.011   1.157  0.0859  0.0996  0.0005
    1W        W38137  13.119  15.181   7.209 -0.2005 -0.0859 -0.1984
    1W        W38138  25.524  14.202   2.706  0.0811 -0.0414 -0.0008
    1W        W38139  25.747   4.826   2.773  0.5294 -0.4332 -0.1705
    1W        W38140   1.422  11.541   7.100  0.0592  0.2318  0.1878
    1W        W38141  28.733  14.894   8.973 -0.2171  0.1457  0.0204
    1W        W38142   0.075   6.574   7.877 -0.2037  0.4640  0.1711
    1W        W38143  23.008   4.421   0.318  0.0984 -0.1352  0.2481
    1W        W38144  29.372  12.940   0.708  0.3201 -0.0873  0.5502
    1W        W38145   1.056  19.339   9.365 -0.2788 -0.2314 -0.4102
    1W        W38146   5.172  16.037   6.821 -0.0444 -0.0337  0.1847
    1W        W38147  20.879  13.478   9.130  0.1419 -0.6042  0.2618
    1W        W38148  25.166  14.589   8.461 -0.1515 -0.1870 -0.0412
    1W        W38149  28.537  19.166   9.385  0.3599 -0.0455  0.1904
    1W        W38150   5.948  21.308   5.861  0.3323  0.2884 -0.2936
    1W        W38151   5.906   4.557   0.561  0.1796  0.0817 -0.2419
    1W        W38152  26.908  15.393   2.148  0.1690 -0.3664  0.1199
    1W        W38153  25.479  17.463   8.543  0.0639 -0.2255 -0.2201
    1W        W38154  13.054  23.794   6.913  0.3461  0.0973  0.0660
    1W        W38155  17.836   3.655   3.355  0.0835  0.2731 -0.0469
    1W        W38156  15.160   5.921   3.450 -0.1828 -0.2649  0.0205
    1W        W38157  27.442  18.708   7.493  0.1477  0.0223  0.0165
    1W        W38158  27.970  16.402   0.266 -0.0765 -0.2506 -0.0187
    1W        W38159  28.524   3.770   2.860 -0.1808  0.0579  0.4063
    1W        W38160   5.650  12.902   7.993 -0.2560  0.0809  0.2849
    1W        W38161  20.898  12.370   2.015  0.3116  0.2335 -0.2688
    1W        W38162  21.000  24.523   7.922  0.0174  0.3208 -0.1354
    1W        W38163  23.112   8.782   2.493  0.2102  0.1419 -0.1688
    1W        W38164  28.143  20.866   8.423  0.0554  0.1338  0.2618
    1W        W38165  27.861   8.148   2.116 -0.2625  0.2385 -0.0635
    1W        W38166  19.461  12.647   0.917 -0.2266 -0.0875  0.2991
    1W        W38167  21.309  20.274   9.062  0.0174  0.1434 -0.0370
    1W        W38168   5.975   2.329   2.136 -0.0712 -0.2218 -0.3436
    1W        W38169  18.525  25.881   1.154 -0.2150  0.1746 -0.1685
    1W        W38170   9.585  16.460   5.858 -0.0523 -0.1066 -0.2938
    1W        W38171  29.207  16.697   8.761 -0.0079 -0.0180 -0.2132
    1W        W38172   9.339  28.717   1.372 -0.1179  0.0707 -0.0364
    1W        W38173   2.040   1.534   0.861 -0.1252  0.3113  0.2172
    1W        W38174  10.161   5.374   1.540 -0.0360 -0.0540 -0.4373
    1W        W38175  28.636  28.524   8.509 -0.2437  0.0349 -0.2910
    1W        W38176  13.467  12.327   2.511  0.1017  0.1996 -0.3853
    1W        W38177  29.642   2.399   2.421 -0.1117 -0.2594 -0.0307
    1W        W38178  11.838  14.656   9.502 -0.2312 -0.1393 -0.3141
    1W        W38179  18.523  12.763   0.652 -0.4918 -0.1588  0.1278
    1W        W38180   8.007  26.631   1.502 -0.1564  0.2221 -0.2248
    1W        W38181  17.218  20.563   0.391  0.2942  0.0889 -0.1859
    1W        W38182  14.229   9.207   2.843  0.1022 -0.1708  0.0435
    1W        W38183  22.107  21.275   7.274  0.2760 -0.0913  0.1294
    1W        W38184  29.191   1.722   8.390 -0.0084 -0.2552 -0.2157
    1W        W38185   1.467  19.029   0.760 -0.3567  0.0216  0.2646
    1W        W38186  24.978  20.745   8.147  0.0486 -0.2233  0.1118
    1W        W38187   1.580  24.238   1.017  0.1317 -0.1109 -0.4820
    1W        W38188   2.104   9.901   1.952  0.0288  0.0960  0.2845
    1W        W38189   2.613  16.810   2.517  0.3045 -0.1947 -0.2336
    1W        W38190  17.977   1.914   8.958 -0.3645 -0.0733 -0.0266
    1W        W38191  26.839  15.759   2.945 -0.0124  0.0304  0.1839
    1W        W38192   1.913   3.692   1.162  0.0938 -0.1250 -0.0179
    1W        W38193  10.775   2.424   8.924  0.0898 -0.4553  0.1050
    1W        W38194  18.701  24.796   8.025 -0.0112 -0.0198 -0.1099
    1W        W38195   8.464   1.721   2.888 -0.3640 -0.3294  0.2240
    1W        W38196  21.250  12.754   0.825 -0.0407 -0.2427 -0.3320
    1W        W38197   6.878   1.915   2.197  0.0044  0.0550 -0.1051
    1W        W38198   2.268   8.734   7.709 -0.0024 -0.0726 -0.1576
    1W        W38199   9.398  25.988   9.285 -0.4703 -0.0880 -0.0970
    1W        W38200  11.936   3.818   1.909  0.0409 -0.0797 -0.2369
    1W        W38201  21.031  11.389   2.434  0.1004 -0.1553 -0.3676
    1W        W38202  23.944   1.444   8.733  0.4294 -0.1670 -0.1483
    1W        W38203  20.392  28.058   8.325  0.3467  0.2023 -0.1184
    1W        W38204  20.328   1.348   8.358 -0.1974  0.1008  0.1917
    1W        W38205   7.935  24.325   1.026  0.0979  0.1019 -0.0362
    1W        W38206  15.643  10.665   9.029  0.3625 -0.0960  0.1595
    1W        W38207   1.419  28.777   5.942 -0.1331 -0.2632 -0.0715
    1W        W38208   5.637   1.894   7.543 -0.0060  0.1388 -0.4114
    1W        W38209   2.998  13.844   7.879 -0.2225  0.4077  0.0029
    1W        W38210  21.938  14.699   0.144 -0.1941  0.2339  0.1596
    1W        W38211   4.630   5.083   2.086  0.1974  0.0546 -0.1096
    1W        W38212  16.593  17.784   9.344  0.0302  0.2776 -0.1523
    1W        W38213   2.817  18.649   7.963 -0.1903  0.0247  0.0879
    1W        W38214   4.235  11.126   7.274 -0.0293  0.2611  0.3306
    1W        W38215  11.401  20.674   7.848  0.0231 -0.1283  0.0129
    1W        W38216   1.115  23.685   0.280  0.0370  0.0154  0.1262
    1W        W38217  15.585  11.581   1.537  0.0483  0.3697  0.0369
    1W        W38218  18.435  17.408   7.402  0.0746 -0.0636 -0.3706
    1W        W38219  26.095  10.681   8.661  0.1752 -0.2092  0.5407
    1W        W38220  28.615  13.001   2.310 -0.0694  0.1231  0.3141
    1W        W38221  23.010   8.658   7.306 -0.1793 -0.0651  0.2165
    1W        W38222  10.667  22.997   9.089  0.0092 -0.1607 -0.1282
    1W        W38223  25.078  20.330   7.361 -0.2039 -0.2236 -0.1691
    1W        W38224  13.715  19.302   2.140 -0.0068  0.0546  0.0400
    1W        W38225  26.788  17.710   6.122 -0.1704 -0.1684  0.1197
    1W        W38226   4.817   0.705   6.304 -0.0854  0.0220  0.3288
    1W        W38227   3.898   7.275   6.693  0.4231 -0.0087 -0.2436
    1W        W38228   7.542   0.692   0.534  0.0387  0.2105  0.0802
    1W        W38229  21.276  18.927   1.911 -0.0560  0.3807 -0.2251
    1W        W38230  28.343  21.313   8.572 -0.0275 -0.1411 -0.1496
    1W        W38231  27.218   7.828   1.875  0.0826  0.0223  0.2359
    1W        W38232  22.529  11.672   0.461  0.0503  0.3084 -0.2950
    1W        W38233  12.774  27.719   3.155  0.2615  0.0536 -0.0844
    1W        W38234   9.093  11.263   6.832 -0.1089  0.0342 -0.2585
    1W        W38235  21.341  29.665   2.407  0.1357  0.2258  0.0423
    1W        W38236   7.028  16.359   9.256  0.1536  0.3389 -0.0092
    1W        W38237   5.972   9.823   1.610  0.1408 -0.2359 -0.2248
    1W        W38238  21.996   1.339   9.431 -0.0788 -0.1604  0.2249
    1W        W38239  22.577  29.608   0.481 -0.1471  0.2158  0.2075
    1W        W38240  27.571   4.310   2.419  0.3554 -0.1073 -0.0340
    1W        W38241  24.680   7.759   2.502 -0.3753  0.1606 -0.5318
    1W        W38242   9.889  10.756   0.946  0.1855  0.2018  0.1645
    1W        W38243   8.302  25.952   8.096  0.2984  0.0263 -0.1946
    1W        W38244  10.171  28.587   3.096 -0.2726  0.0168  0.2619
    1W        W38245  15.963  19.958   6.713 -0.0032 -0.0204  0.1478
    1W        W38246   3.098  27.516   7.031 -0.0857  0.2061 -0.0183
    1W        W38247  25.806  15.271   2.288 -0.1546 -0.2745 -0.1883
    1W        W38248   7.628  21.565   7.296  0.1982 -0.0130 -0.3225
    1W        W38249  18.187  11.908   1.438 -0.1575  0.1542  0.0044
    1W        W38250  14.631  26.531   2.051  0.2332  0.0009  0.0176
    1W        W38251  14.899  23.419   6.465 -0.0627 -0.1031 -0.1010
    1W        W38252  12.662  15.786   7.634 -0.0365 -0.1537 -0.0475
    1W        W38253  25.127  22.206   8.196 -0.0131  0.2484 -0.3141
    1W        W38254   2.377  12.449   3.108 -0.1087 -0.0346  0.1125
    1W        W38255  16.000  10.189   8.115 -0.1853  0.2272 -0.1847
    1W        W38256   4.004  25.306   1.269 -0.2966 -0.2550 -0.1025
    1W        W38257  25.395  28.474   6.651  0.0493  0.0607 -0.1539
    1W        W38258  28.041  19.127   7.616  0.0111 -0.1912 -0.0699
    1W        W38259  18.285  29.826   0.106 -0.0160  0.1442  0.1049
    1W        W38260  17.419  27.823   8.781 -0.0155 -0.0895  0.1244
    1W        W38261   6.377  17.649   6.768 -0.2430 -0.1253  0.1219
    1W        W38262  25.414   9.337   8.501 -0.0097  0.0001  0.1888
    1W        W38263  12.725   8.776   2.407  0.0371  0.0544  0.0185
    1W        W38264  29.278  10.954   8.121  0.0683  0.3080  0.2542
    1W        W38265  14.174  22.359   7.767  0.1386 -0.1135  0.0042
    1W        W38266  12.519   1.788   7.675 -0.0714 -0.0626  0.0490
    1W        W38267  10.031   8.072   8.876  0.1254 -0.1164 -0.2839
    1W        W38268   5.008  14.391   2.061  0.0067 -0.0377 -0.0419
    1W        W38269   8.098  29.042   1.022 -0.0914 -0.1895  0.1079
    1W        W38270   3.789  18.361   8.726 -0.1738 -0.0853 -0.1693
    1W        W38271   2.863   5.828   8.051  0.0179  0.0262 -0.0653
    1W        W38272  25.840  22.822   7.196 -0.3186  0.1954  0.3118
    1W        W38273   0.805  10.893   0.115 -0.0743  0.1091 -0.0523
    1W        W38274   0.320   2.857   0.149 -0.0149  0.0452  0.0411
    1W        W38275  10.332   9.874   7.988  0.2562 -0.0536 -0.3430
    1W        W38276  20.911  10.019   1.342  0.0788 -0.0609 -0.1360
    1W        W38277   1.800  16.932   6.346  0.3682 -0.1159 -0.1649
    1W        W38278  18.410   0.425   1.631  0.1504 -0.1932  0.1697
    1W        W38279   1.662   7.405   1.262  0.1191  0.1051  0.1906
    1W        W38280  11.674  21.197   7.767 -0.2453  0.0973 -0.1208
    1W        W38281  14.132  24.478   7.853  0.2307 -0.1289 -0.0135
    1W        W38282   0.744   7.076   8.211 -0.0634  0.0902 -0.5057
    1W        W38283  27.243  28.980   2.513 -0.0676  0.0565  0.3441
    1W        W38284   1.556  16.690   9.166 -0.0538 -0.0740  0.0401
    1W        W38285   6.566   3.912   7.786 -0.1227 -0.0452 -0.1520
    1W        W38286  26.375   5.617   2.206  0.1721 -0.0028  0.1286
    1W        W38287   2.841  20.221   6.339 -0.0345 -0.0002  0.0418
    1W        W38288  19.539   4.766   1.211  0.1400  0.2136 -0.2080
    1W        W38289  23.442  13.000   2.143  0.2468  0.3855 -0.0240
    1W        W38290   2.748   2.938   7.314 -0.1010  0.2863 -0.1923
    1W        W38291  26.692  14.798   8.569  0.0380  0.0418 -0.2263
    1W        W38292  23.770  15.027   8.795 -0.1124  0.1735 -0.2655
    1W        W38293  16.849   3.664   3.695  0.0131  0.2824 -0.1754
    1W        W38294   2.420   5.469   0.514 -0.2193  0.0961  0.0261
    1W        W38295   0.445  24.749   8.451  0.0983 -0.0377  0.0638
    1W        W38296  22.731  21.943   9.304 -0.0861  0.1074 -0.1548
    1W        W38297  21.461   6.828   0.099  0.3439 -0.3013 -0.1632
    1W        W38298   6.854   1.249   9.492  0.1564 -0.2456 -0.1107
    1W        W38299   1.000   7.964   9.184  0.1909 -0.0663 -0.0729
    1W        W38300   8.222  21.010   6.984  0.4092 -0.2710 -0.2431
    1W        W38301  23.474   8.632   2.769  0.1853 -0.0622  0.1901
    1W        W38302  25.528  20.055   7.976 -0.0376  0.0851  0.2271
    1W        W38303   8.932  15.285   6.834 -0.0408  0.2222  0.0290
    1W        W38304  16.774  15.312   9.134 -0.0927 -0.0439  0.3013
    1W        W38305  14.976   8.118   1.610  0.3676 -0.2740 -0.1737
    1W        W38306  24.419   5.547   2.051 -0.2422 -0.2755  0.1133
    1W        W38307  18.627  11.220   8.730 -0.2420  0.0658 -0.2343
    1W        W38308  14.402   0.815   7.561  0.3719 -0.0254  0.3302
    1W        W38309  26.722  22.208   7.064 -0.0320 -0.1704  0.0863
    1W        W38310  16.198   0.609   2.701  0.1015 -0.0849 -0.4178
    1W        W38311  19.614  16.542   7.600  0.0184  0.2211 -0.1461
    1W        W38312  10.266   5.305   3.093  0.0436  0.1644 -0.4198
    1W        W38313  16.505  28.191   1.127 -0.0043  0.0027 -0.1400
    1W        W38314  12.387   3.651   9.330  0.1391 -0.2157 -0.0972
    1W        W38315  20.524   6.684   1.646 -0.1543 -0.2532 -0.4113
    1W        W38316  26.879   9.760   1.969 -0.0404  0.0997  0.1291
    1W        W38317  15.822   8.288   8.946  0.0687  0.0313 -0.1213
    1W        W38318  19.459  13.507   2.144  0.2383  0.3434 -0.0097
    1W        W38319  12.919  10.237   8.724  0.0727  0.1241  0.1134
    1W        W38320  14.553  16.985   6.207 -0.2996 -0.2029 -0.0416
    1W        W38321  13.134   6.568   9.344 -0.3355 -0.0191  0.0791
    1W        W38322   0.037  11.729   1.246  0.0373  0.2436 -0.1093
    1W        W38323   3.158  24.839   1.362 -0.3269  0.0862  0.0780
    1W        W38324   9.666   9.274   2.266 -0.1769 -0.1655  0.1254
    1W        W38325  23.324  23.371   1.065  0.0629  0.0735  0.1748
    1W        W38326  14.920  25.417   9.098 -0.0742  0.1084  0.2587
    1W        W38327   0.082  28.960   9.104 -0.2864  0.0368 -0.0106
    1W        W38328   8.102  10.824   2.299 -0.2903 -0.0466 -0.1392
    1W        W38329  29.442   6.358   7.978  0.1655  0.0366  0.1113
    1W        W38330   9.910  14.677   1.979  0.2228 -0.2114  0.0574
    1W        W38331  21.550   2.166   3.028 -0.1749  0.2724  0.1450
    1W        W38332  12.309  17.508   6.862  0.1818  0.0849  0.0583
    1W        W38333   4.567  14.889   9.246 -0.1827  0.1313 -0.0015
    1W        W38334  24.132  13.829   7.464 -0.0689  0.2820  0.0649
    1W        W38335  28.993  22.361   0.700 -0.1050 -0.1533 -0.0089
    1W        W38336  27.888  15.214   6.818  0.0544  0.0960  0.1966
    1W        W38337  28.844  20.170   9.381 -0.0069  0.0164 -0.0534
    1W        W38338   5.907   7.901   7.759  0.0561 -0.1188 -0.0160
    1W        W38339  28.279  15.396   2.389  0.3176 -0.2421 -0.0701
    1W        W38340   7.989  21.836   8.339 -0.1319  0.3142 -0.3492
    1W        W38341  15.551  18.150   9.227 -0.3328 -0.1753  0.0173
    1W        W38342  10.819   8.895   7.269 -0.1831  0.0634  0.2434
    1W        W38343   5.460  12.362   7.934 -0.3203  0.2875  0.1838
    1W        W38344  24.558   2.562   2.679 -0.0706 -0.1311 -0.1434
    1W        W38345  25.378  28.903   0.586 -0.0623 -0.0334  0.1809
    1W        W38346  28.305  21.762   1.670  0.0777  0.2366  0.1999
    1W        W38347   9.542  18.293   0.426  0.0451  0.3070  0.0561
    1W        W38348  19.767   6.202   7.851 -0.1221 -0.1047 -0.0170
    1W        W38349  19.073  11.185   8.512 -0.2015  0.0777 -0.1033
    1W        W38350  25.304  27.030   1.988  0.2672  0.1964  0.1172
    1W        W38351  20.974  27.280   8.247  0.1731 -0.0508 -0.0685
    1W        W38352  13.216   2.413   1.098  0.1634 -0.2358  0.1248
    1W        W38353   2.596   9.128   6.998 -0.0116  0.0979  0.3799
    1W        W38354   3.778  12.429   6.459 -0.0411 -0.0683  0.2326
    1W        W38355   7.493   4.881   2.949  0.0313  0.1736  0.1325
    1W        W38356   1.297  23.166   6.408  0.2199  0.3933  0.2709
    1W        W38357   2.433  16.298   7.313  0.2534 -0.1954 -0.3614
    1W        W38358  19.196  21.731   0.284  0.0552 -0.1338 -0.0455
    1W        W38359  21.387   0.731   9.455 -0.1230  0.0197 -0.0066
    1W        W38360  28.219   5.019   7.257 -0.0280  0.1248 -0.0214
    1W        W38361   5.741  17.360   7.401  0.1942 -0.2701 -0.1446
    1W        W38362  12.508  20.498   0.235  0.0836  0.0606  0.1945
    1W        W38363  24.106   0.931   8.046 -0.1526  0.3700  0.1764
    1W        W38364   9.674   1.742   7.174  0.1645  0.0787 -0.3033
    1W        W38365   4.234  28.216   2.317  0.2880  0.0120  0.1485
    1W        W38366  21.846  25.215   0.163  0.1186  0.1912 -0.0943
    1W        W38367  20.531  10.132   0.614 -0.0580  0.3277 -0.0761
    1W        W38368  28.987   0.332   9.473 -0.1580 -0.2087 -0.1919
    1W        W38369   9.855  13.528   1.911 -0.1771 -0.1215  0.0611
    1W        W38370  12.102  12.132   0.732 -0.1428  0.0446 -0.0536
    1W        W38371  11.253   2.157   9.167 -0.0219  0.0493  0.3123
    1W        W38372  24.216  12.749   8.210  0.1558  0.0716 -0.3228
    1W        W38373   8.949  16.150   7.208  0.0716  0.0059  0.2169
    1W        W38374  17.226  24.715   5.628 -0.1180 -0.1585  0.1004
    1W        W38375  13.045  11.707   1.802 -0.2154 -0.1472  0.1842
    1W        W38376  10.884  26.412   2.267  0.0349 -0.2220  0.0490
    1W        W38377   6.301  11.886   1.684  0.3538  0.0957 -0.1126
    1W        W38378  17.646   4.738   9.462  0.1742 -0.2126  0.0061
    1W        W38379  17.151  14.725   8.792 -0.0009  0.1725  0.4502
    1W        W38380  29.252   7.178   0.392  0.0954 -0.2254 -0.0969
    1W        W38381   9.873  29.607   7.783 -0.1434  0.1193  0.0756
    1W        W38382  13.449  28.508   7.701  0.0544 -0.1714 -0.0029
    1W        W38383   8.285  14.832   1.396 -0.0507  0.0230  0.3159
    1W        W38384  15.702  23.325   8.263 -0.1099 -0.0206  0.0982
    1W        W38385  22.754  23.471   7.255  0.0674  0.0352  0.1568
    1W        W38386  23.579  12.990   1.192 -0.0101  0.1838  0.0577
    1W        W38387   2.861   5.402   1.087 -0.0491  0.0484 -0.2362
    1W        W38388  21.534   7.583   8.352  0.3257  0.2261  0.3641
    1W        W38389   1.192   5.878   2.449  0.2033  0.0494 -0.0109
    1W        W38390   9.775  11.513   2.536 -0.2371  0.4860 -0.1085
    1W        W38391   6.452  22.819   7.734 -0.2644  0.1335  0.0339
    1W        W38392  12.171   8.605   2.587  0.0143  0.0433  0.1213
    1W        W38393  29.152  20.554   3.096 -0.0910  0.1171 -0.0553
    1W        W38394  20.782  16.707   8.949 -0.2607 -0.1524  0.0960
    1W        W38395   6.946  13.896   6.204  0.2422  0.0625 -0.1416
    1W        W38396  14.358  10.577   2.255 -0.0302 -0.2411  0.2790
    1W        W38397  15.931   3.269   0.720 -0.3737  0.2211  0.1201
    1W        W38398  22.696   9.114   8.976 -0.1219 -0.1547 -0.0004
    1W        W38399  21.435  27.909   3.153 -0.1083  0.0614 -0.2423
    1W        W38400  11.439  24.322   8.137 -0.0095  0.1600 -0.2616
    1W        W38401   1.188   7.120   8.903 -0.2953 -0.2033 -0.0604
    1W        W38402   5.260  29.226   9.470 -0.0386 -0.2017 -0.0315
    1W        W38403   5.289   6.131   2.971  0.0551 -0.2227 -0.0180
    1W        W38404  24.948  25.255   6.389 -0.2318  0.0266 -0.1664
    1W        W38405   6.284  27.964   0.962  0.1230 -0.2307 -0.1825
    1W        W38406   5.957  28.333   7.857 -0.6766 -0.3884  0.2690
    1W        W38407  16.378  14.312   7.443  0.1251  0.0908  0.2322
    1W        W38408  26.633  18.000   7.886  0.2043  0.0351 -0.0938
    1W        W38409  14.186   1.655   8.446  0.0361 -0.1404 -0.2830
    1W        W38410  25.834   8.803   2.378  0.1515  0.0438 -0.0646
    1W        W38411  15.440  17.405   2.134 -0.1110 -0.0153 -0.2994
    1W        W38412   0.555  29.303   8.274 -0.2733  0.3084 -0.2189
    1W        W38413  26.464  21.106   7.128  0.2577 -0.0551 -0.2261
    1W        W38414   6.106  27.183   1.537  0.0772  0.3411 -0.0234
    1W        W38415  24.290  13.235   8.149 -0.1934 -0.2794  0.3189
    1W        W38416  17.578   8.359   1.558 -0.0154  0.0952 -0.0418
    1W        W38417  16.363   1.996   8.027  0.1874  0.0000  0.1117
    1W        W38418  27.258   0.805   3.084 -0.1102 -0.1802 -0.0100
    1W        W38419   4.636  14.503   6.993  0.1315 -0.0850 -0.0546
    1W        W38420  27.189  16.412   9.142 -0.2807 -0.0427  0.1106
    1W        W38421  26.684   9.717   9.053 -0.1601 -0.2571 -0.0581
    1W        W38422  22.108  27.574   9.035  0.2418  0.0373  0.0322
    1W        W38423   0.108  18.644   7.439 -0.3257  0.1160  0.1615
    1W        W38424  12.133  17.338   1.384  0.2796  0.3701  0.0559
    1W        W38425  29.756   6.342   1.861  0.0757  0.3338 -0.0990
    1W        W38426  23.268   1.792   1.817 -0.2665  0.0608 -0.1027
    1W        W38427   8.145  16.198   0.462 -0.1486  0.0645  0.0287
    1W        W38428  25.418  10.004   6.704 -0.2601  0.1702 -0.3604
    1W        W38429  22.374  19.806   8.006 -0.1605 -0.1651  0.0635
    1W        W38430  10.800   2.302   7.685  0.1286 -0.0223 -0.1153
    1W        W38431  19.550  19.657   6.810 -0.2017  0.1587 -0.2561
    1W        W38432   1.719   9.404   6.946 -0.0389 -0.1903 -0.2188
    1W        W38433  14.448   1.793   0.516 -0.0907 -0.1507 -0.0542
    1W        W38434  16.630   4.226   0.978  0.2681  0.1938  0.2903
    1W        W38435  16.544  26.966   9.115  0.1087  0.1221  0.0658
    1W        W38436   2.720   0.233   6.627  0.0766 -0.0326 -0.0224
    1W        W38437   9.361  24.789   7.379  0.2166  0.0846 -0.0574
    1W        W38438  13.720  18.706   2.042 -0.0629  0.1597 -0.1000
    1W        W38439  16.514  23.015   5.032 -0.0574  0.0170  0.0239
    1W        W38440   3.049   8.576   9.272 -0.1953 -0.0192 -0.0476
    1W        W38441   4.892   6.063   7.054  0.0916  0.0909  0.0792
    1W        W38442  15.675   1.625   9.392  0.1158  0.0254 -0.2047
    1W        W38443  20.082  27.843   9.339  0.1970  0.1096 -0.0611
    1W        W38444  21.939   5.110   0.115  0.1618 -0.1869 -0.0208
    1W        W38445  13.446  14.758   2.398  0.0658 -0.0734 -0.1422
    1W        W38446  10.635   9.217   1.762  0.1098  0.0204 -0.3148
    1W        W38447  26.458  12.862   1.999 -0.1845  0.1337  0.0254
    1W        W38448  13.641  17.483   8.126  0.1679  0.2265 -0.0124
    1W        W38449   2.906  13.818   1.939 -0.2850 -0.0492 -0.0170
    1W        W38450   5.272  19.855   7.399  0.2421 -0.0015 -0.1913
    1W        W38451  16.560   8.181   1.470  0.1055 -0.0376 -0.2380
    1W        W38452   2.281  19.206   7.124 -0.1295 -0.4685  0.2772
    1W        W38453  13.732  18.051   6.446 -0.0341  0.1430  0.2985
    1W        W38454  13.502   1.651   9.450 -0.0466  0.1679  0.2048
    1W        W38455  24.436  17.444   7.347  0.0027  0.0242  0.0008
    1W        W38456   4.722  11.677   6.622 -0.3062 -0.0277  0.1388
    1W        W38457  12.205  12.533   8.353  0.0066  0.0707  0.2120
    1W        W38458  29.824   2.324   1.451  0.3950 -0.0048  0.1260
    1W        W38459  20.129   9.997   9.030 -0.1545 -0.2225 -0.0880
    1W        W38460  18.397  10.494   1.770  0.1395 -0.2696 -0.3134
    1W        W38461  18.797   3.522   8.851 -0.0818 -0.4568  0.1356
    1W        W38462  25.533   7.317   9.138 -0.0947 -0.1029  0.0933
    1W        W38463  19.990  14.263   7.087 -0.2898 -0.1004  0.2218
    1W        W38464  14.410  15.963   7.028  0.2006 -0.2584 -0.0976
    1W        W38465  27.000  10.814   9.486 -0.3982  0.4258 -0.1111
    1W        W38466   0.500   9.940   7.328 -0.0616 -0.1323 -0.0703
    1W        W38467  11.451  16.852   8.450  0.2917 -0.0131  0.0584
    1W        W38468   5.985  13.440   0.271 -0.3996  0.0508 -0.1296
    1W        W38469  12.904   1.908   2.023  0.0039 -0.0107 -0.1786
    1W        W38470  11.784  17.534   5.684  0.3394  0.2178  0.2554
    1W        W38471  25.062  18.058   7.918 -0.0515 -0.0984  0.0521
    1W        W38472  25.347   7.602   8.045 -0.2193  0.1214  0.0503
    1W        W38473   6.277  12.302   1.377 -0.0912  0.2510  0.1050
    1W        W38474  15.791  26.275   1.353  0.1574  0.0286 -0.0277
    1W        W38475   3.107  21.871   2.394 -0.1822 -0.0575 -0.4693
    1W        W38476  13.300  25.360   7.865  0.1772 -0.1652  0.2060
    1W        W38477  11.690   7.408   1.139 -0.0110  0.1081  0.3707
    1W        W38478  14.075  17.164   6.890  0.0818 -0.0208 -0.1293
    1W        W38479   3.493  14.074   8.569 -0.0700 -0.2836 -0.0671
    1W        W38480   2.304  26.062   0.050  0.2617 -0.1215 -0.0622
    1W        W38481  18.369   5.717   2.029 -0.2050  0.0376  0.2117
    1W        W38482  20.330   7.670   8.535 -0.0634 -0.1625  0.1750
    1W        W38483  15.887  29.268   0.039 -0.2383 -0.0815  0.0557
    1W        W38484  22.909   2.278   3.256 -0.1775  0.3128 -0.1676
    1W        W38485  23.918  27.239   7.016 -0.1966  0.0843 -0.0160
    1W        W38486  26.237   9.236   9.040  0.0906 -0.1170 -0.1991
    1W        W38487  22.034  27.886   8.333  0.0358  0.2511  0.1182
    1W        W38488  19.832   9.946   9.464  0.3134 -0.1215  0.3423
    1W        W38489   1.694   4.675   2.571  0.4496  0.0087  0.0492
    1W        W38490   8.607   9.600   0.771 -0.1289 -0.2089 -0.3189
    1W        W38491  21.776  19.213   1.222  0.1998 -0.1826  0.2228
    1W        W38492  25.691  28.490   3.126 -0.3159 -0.3627  0.5125
    1W        W38493   1.566   1.472   6.126  0.3156  0.0672  0.0649
    1W        W38494  10.049  12.069   1.510  0.0108 -0.0789  0.1769
    1W        W38495  20.115  18.059   1.771 -0.2535  0.2965 -0.2338
    1W        W38496   6.413  23.177   0.178  0.0181 -0.1534 -0.1471
    1W        W38497  16.032  20.885   1.257 -0.0287 -0.0887  0.1789
    1W        W38498  10.848  14.066   7.135 -0.0773 -0.3151 -0.3394
    1W        W38499  12.424   0.622   7.388 -0.0127  0.1097  0.0436
    1W        W38500   9.162  27.311   1.990 -0.1603 -0.2244  0.3560
    1W        W38501   2.001  12.416   0.367  0.1323 -0.2290 -0.0366
    1W        W38502   7.769  22.919   0.464  0.0744  0.0601  0.2118
    1W        W38503  29.825   3.570   2.378  0.1590 -0.2261  0.0436
    1W        W38504  25.961  21.821   2.210  0.0668  0.0907  0.1344
    1W        W38505  16.129  19.648   1.554  0.1208  0.0321 -0.2996
    1W        W38506  20.995  25.903   7.707 -0.0393  0.1922 -0.2283
    1W        W38507  15.122   6.340   1.321 -0.0477 -0.0165  0.3263
    1W        W38508   7.188   6.685   8.896  0.0295 -0.1728  0.1887
    1W        W38509  18.916   2.512   0.158 -0.3903  0.1028  0.0246
    1W        W38510  14.864   2.953   3.514 -0.1240  0.0134  0.1674
    1W        W38511   8.095  20.671   8.352  0.0672 -0.4865  0.2389
    1W        W38512  25.801  22.851   8.174  0.2689  0.2412 -0.1610
    1W        W38513  15.525  16.790   8.035  0.0245 -0.0388  0.1178
    1W        W38514  22.964  16.651   0.546  0.1265 -0.0104  0.1165
    1W        W38515  13.820  25.594   1.965  0.2353 -0.0048 -0.0619
    1W        W38516   7.751  22.722   6.224  0.2507 -0.0077  0.1992
    1W        W38517   7.033  17.429   1.269  0.0636  0.0805 -0.0532
    1W        W38518  27.596  27.286   1.537 -0.0752  0.1897 -0.1584
    1W        W38519  17.769  27.897   2.720 -0.1776 -0.0901  0.1328
    1W        W38520  19.458  11.052   8.974 -0.0990  0.0304  0.0031
    1W        W38521  23.158  11.426   2.793 -0.1892  0.1357  0.0149
    1W        W38522  25.987  12.123   8.584  0.3368 -0.3115 -0.0220
    1W        W38523   3.484   1.509   7.345 -0.0597  0.1485  0.1979
    1W        W38524  10.315  16.120   7.824  0.0380  0.0749 -0.2189
    1W        W38525  28.720  23.796   7.491  0.2291 -0.3439 -0.2238
    1W        W38526   1.382   1.723   8.048 -0.0713 -0.3423  0.0853
    1W        W38527   4.323  21.338   1.284 -0.2731  0.3556  0.1782
    1W        W38528   7.235  18.664   7.842 -0.2117  0.1701  0.1335
    1W        W38529  20.353   5.879   0.113 -0.1598  0.0642  0.1355
    1W        W38530  10.505  13.439   0.110  0.0852  0.0058  0.1205
    1W        W38531   5.503  23.451   1.235 -0.3126 -0.0044  0.0073
    1W        W38532  10.075  23.164   2.115  0.3045  0.2068  0.0002
    1W        W38533  14.968   5.281   7.892  0.2689 -0.3160 -0.2233
    1W        W38534   3.684   4.984   0.345 -0.1405 -0.1181 -0.2758
    1W        W38535   2.511  14.448   7.690 -0.3923 -0.3405  0.0217
    1W        W38536   1.413   0.427   1.479  0.0180  0.0242  0.0965
    1W        W38537   2.508  22.877   2.571  0.1435  0.0772 -0.2052
    1W        W38538  25.016  19.008   8.956 -0.0874 -0.0483  0.0770
    1W        W38539  19.267  13.540   7.320 -0.3187 -0.2516 -0.1189
    1W        W38540  27.375  20.050   9.218 -0.1392 -0.1377 -0.0555
    1W        W38541  22.793  10.704   0.627 -0.2730  0.1180 -0.0793
    1W        W38542  17.884  12.006   2.291  0.2102  0.2653  0.0510
    1W        W38543   1.184  25.128   6.239  0.0268  0.1128 -0.3144
    1W        W38544  18.623  10.385   8.827 -0.1960  0.1180 -0.1485
    1W        W38545  29.356  19.898   2.175  0.0815 -0.0454  0.0776
    1W        W38546  14.819  14.223   6.451  0.0411 -0.2821  0.0292
    1W        W38547  23.414  22.782   8.146 -0.0999 -0.3592  0.1338
    1W        W38548  18.850   6.516   7.799 -0.0557 -0.0657 -0.0870
    1W        W38549  20.718   4.007   8.942  0.0458  0.0301 -0.3361
    1W        W38550  23.617  25.984   7.529 -0.2065 -0.2214 -0.1044
    1W        W38551  10.582  12.810   8.995  0.0576  0.1713  0.3467
    1W        W38552  16.706  25.546   8.229 -0.1098  0.2450  0.0317
    1W        W38553   1.948  19.000   0.672 -0.1088  0.0587  0.3322
    1W        W38554  28.212  16.981   8.770  0.0531  0.3627 -0.1750
    1W        W38555   1.556  25.733   6.470  0.1892 -0.0307 -0.0033
    1W        W38556  11.101  29.606   8.942  0.2098  0.2727 -0.0201
    1W        W38557   3.921   9.227   7.108  0.5367  0.0547 -0.2339
    1W        W38558  25.519  24.562   6.946  0.0245  0.2047 -0.0602
    1W        W38559  15.098  27.970   2.419 -0.3510  0.0651 -0.0150
    1W        W38560   4.119   5.832   1.800 -0.1983 -0.3123  0.2231
    1W        W38561  27.118  16.871   9.383 -0.0890  0.1656 -0.0579
    1W        W38562  11.812  29.647   9.462 -0.0811  0.1168  0.0667
    1W        W38563  28.812  26.481   2.083  0.0213  0.0633 -0.1864
    1W        W38564  25.064  26.080   2.345  0.1581  0.0216 -0.5473
    1W        W38565   2.729   7.873   2.061  0.0810 -0.0295 -0.0240
    1W        W38566   9.849  17.066   8.537 -0.0286  0.4635  0.1398
    1W        W38567  21.868  10.589   1.807  0.0774  0.0898 -0.2980
    1W        W38568  16.272  25.108   8.839 -0.0296 -0.0799  0.1020
    1W        W38569  24.401   7.160   3.392 -0.1367  0.2787  0.0423
    1W        W38570  16.115  18.745   1.020 -0.1960  0.1746  0.1195
    1W        W38571   6.260   4.982   8.409 -0.0988  0.0308 -0.5630
    1W        W38572  10.329  19.589   9.420  0.0791 -0.4377 -0.0552
    1W        W38573  28.047   4.905   7.688 -0.1644 -0.0366  0.0626
    1W        W38574  15.314  19.836   7.189 -0.1089  0.1476 -0.4918
    1W        W38575  22.621  13.522   7.407 -0.1085 -0.1334  0.0411
    1W        W38576  27.654   4.598   3.401 -0.0688  0.0975 -0.1282
    1W        W38577  18.073  15.650   1.425  0.0044 -0.0819  0.0326
    1W        W38578  20.851   8.786   9.529  0.2151  0.1696 -0.0498
    1W        W38579  21.605  15.118   8.760 -0.6344 -0.2153 -0.0968
    1W        W38580   6.467  25.967   2.359 -0.0584 -0.0951  0.1201
    1W        W38581   4.463  16.381   6.229  0.0832  0.1194 -0.0849
    1W        W38582  21.335  13.752   8.823 -0.0564  0.0910 -0.2676
    1W        W38583  13.688   6.392   2.373  0.3266  0.0684 -0.1483
    1W        W38584  23.812  16.752   6.341 -0.2881 -0.0947  0.0895
    1W        W38585  11.774  27.899   1.530 -0.0338  0.1430  0.0750
    1W        W38586  26.951   0.310   0.630  0.2122 -0.0866  0.1224
    1W        W38587  28.817  15.595   0.887 -0.1237  0.0623 -0.1540
    1W        W38588   8.595  10.704   1.538  0.3750 -0.1879 -0.0905
    1W        W38589   0.169  12.570   2.568 -0.1172 -0.0810  0.1060
    1W        W38590  24.259   9.601   0.250  0.0525 -0.1493 -0.5341
    1W        W38591  18.740   1.150   8.201  0.0831 -0.2350  0.0417
    1W        W38592   7.118  24.837   1.889  0.3254 -0.1855  0.0900
    1W        W38593  29.049  29.115   9.220 -0.1759  0.2568  0.0647
    1W        W38594  20.168  20.222   6.416 -0.0931 -0.1363 -0.3372
    1W        W38595   7.178  27.789   0.849 -0.3181 -0.1350  0.0404
    1W        W38596  20.879  23.633   2.723 -0.1478  0.0229  0.0489
    1W        W38597   1.370  27.666   8.353 -0.3508  0.3382  0.0858
    1W        W38598  27.390  24.064   1.477  0.1745  0.1664  0.1635
    1W        W38599   4.623  12.921   9.396  0.0631  0.2242  0.0403
    1W        W38600   3.818  16.478   2.511  0.3870  0.0115 -0.0620
    1W        W38601   6.353   8.237   2.179  0.0884  0.2552 -0.2186
    1W        W38602   1.640   2.709   0.438 -0.2637 -0.1743  0.0884
    1W        W38603  13.075   5.188   0.568  0.2144  0.0396  0.0457
    1W        W38604  25.908  23.611   7.949  0.0817 -0.0326 -0.0888
    1W        W38605  20.679  16.279   9.458  0.3311  0.0525  0.1981
    1W        W38606  12.653   1.479   1.245 -0.0208 -0.1901  0.1014
    1W        W38607  18.171  28.873   2.269 -0.1454  0.0155 -0.5415
    1W        W38608  29.472   3.969   8.037  0.3405 -0.0945 -0.1397
    1W        W38609   0.992  18.224   1.862  0.1243 -0.0652  0.2025
    1W        W38610  27.459  17.130   8.063 -0.3106  0.0003  0.0676
    1W        W38611   1.116  16.255   6.788 -0.0417  0.0941 -0.1723
    1W        W38612   4.590  20.572   6.690  0.4624 -0.3795  0.0531
    1W        W38613  25.483  12.587   8.994  0.0804 -0.1306  0.3166
    1W        W38614  23.454   2.099   8.506 -0.1473  0.0474 -0.2412
    1W        W38615  26.437   9.735   0.006 -0.1139 -0.0081 -0.1840
    1W        W38616   4.412  11.795   0.357 -0.1071  0.0748 -0.0210
    1W        W38617  17.428  19.862   1.330  0.1775  0.1068 -0.2503
    1W        W38618  16.429  22.992   6.411 -0.0369 -0.0899  0.2061
    1W        W38619  12.298  24.324   8.871  0.2092  0.5217  0.0914
    1W        W38620  24.835   3.708   1.717  0.0606 -0.0032 -0.3222
    1W        W38621  12.978   3.124   0.314  0.0678 -0.0621 -0.1284
    1W        W38622   0.171  15.420   1.487  0.0621  0.3042  0.0356
    1W        W38623   2.465   7.314   0.367  0.0115 -0.0881  0.2720
    1W        W38624  21.183  23.115   2.778  0.1865 -0.0073  0.1508
    1W        W38625   1.456  16.454   6.394 -0.1948  0.0115 -0.1338
    1W        W38626   1.230  25.502   0.638  0.1281  0.1590  0.1831
    1W        W38627  29.585  26.116   0.371 -0.2404  0.2006  0.2020
    1W        W38628   0.011  28.154   9.295 -0.4226  0.1477  0.2225
    1W        W38629  14.179  24.461   0.464  0.0791  0.0758  0.1035
    1W        W38630  26.000   6.341   8.209 -0.0875 -0.0723  0.0040
    1W        W38631   5.048  13.423   2.659 -0.4278  0.1232 -0.0307
    1W        W38632   2.279   5.407   8.578 -0.0084  0.0185  0.1791
    1W        W38633   2.811  21.913   0.735  0.0213 -0.1488 -0.0972
    1W        W38634   8.215  10.353   3.365  0.2045  0.1733  0.1242
    1W        W38635  28.305  20.600   2.624  0.2390  0.1137  0.1109
    1W        W38636  17.734  26.436   7.965 -0.2852  0.0417 -0.0905
    1W        W38637   4.484  15.700   1.000 -0.2530  0.1074  0.0159
    1W        W38638  27.228  19.140   1.764 -0.1050 -0.4530 -0.0831
    1W        W38639   3.301   7.139   2.015  0.1720  0.0211  0.2899
    1W        W38640  17.537   7.157   0.292 -0.1496 -0.0523 -0.1953
    1W        W38641  17.788  12.558   0.254  0.2755 -0.0156 -0.2217
    1W        W38642   3.382  13.207   1.836  0.0538  0.0176  0.0710
    1W        W38643  24.497   0.295   1.084 -0.1407  0.0592 -0.1445
    1W        W38644  13.146   8.350   9.106 -0.1872 -0.2476  0.3766
    1W        W38645   6.591  23.976   7.059  0.2576 -0.0254 -0.1442
    1W        W38646   8.963  15.850   8.591  0.1191  0.4442  0.1776
    1W        W38647  27.182  28.141   7.561  0.1133  0.0042  0.2017
    1W        W38648  24.314   1.300   3.130 -0.1801  0.1915 -0.1290
    1W        W38649   6.747   6.564   0.920  0.2499 -0.0283 -0.0599
    1W        W38650   8.437  23.879   6.543 -0.0215 -0.2148 -0.0043
    1W        W38651   6.199  17.651   0.780 -0.0189 -0.1228  0.0480
    1W        W38652  29.829  13.240   0.565  0.0257  0.1906  0.1641
    1W        W38653   3.731  26.161   1.075  0.2851  0.0230  0.0592
    1W        W38654  29.797  10.573   1.676 -0.0185  0.0907  0.1233
    1W        W38655  28.255  23.720   2.586  0.0896  0.0573 -0.1105
    1W        W38656  18.671   1.874   1.392 -0.2441 -0.2216  0.2296
    1W        W38657  29.373  22.803   1.426 -0.0439 -0.1401 -0.4092
    1W        W38658   2.395  10.013   7.976 -0.0138 -0.0846 -0.0177
    1W        W38659  12.524   7.650   0.570  0.0699  0.1011  0.1791
    1W        W38660   6.872  22.339   1.232  0.1193 -0.4257 -0.0481
    1W        W38661   8.849  13.472   0.069 -0.0430  0.1454 -0.0155
    1W        W38662   5.902   9.715   0.671 -0.2936  0.1224 -0.3181
    1W        W38663  21.152   9.544   1.678  0.1016  0.0954  0.0711
    1W        W38664  21.794  14.176   0.306  0.0602 -0.0236  0.4863
    1W        W38665   3.229   4.464   0.659  0.1089 -0.2008 -0.1316
    1W        W38666   1.341  24.791   8.241 -0.1490  0.3731  0.0200
    1W        W38667  27.087  25.344   6.896  0.3349  0.0719  0.1474
    1W        W38668   4.398  29.037   7.856  0.2763  0.0057 -0.0958
    1W        W38669  14.257   9.846   2.493 -0.1255 -0.3170  0.2302
    1W        W38670  17.273   0.681   2.322  0.0482 -0.1621  0.0989
    1W        W38671  25.147  13.755   7.230  0.0229 -0.0726 -0.0570
    1W        W38672  19.558   9.545   1.719  0.1137 -0.0969 -0.0781
    1W        W38673  27.174   3.616   2.946 -0.3037  0.1660  0.0410
    1W        W38674  18.402   5.874   1.259  0.0875  0.1343  0.0255
    1W        W38675  24.551   0.855   1.220  0.0791  0.2287 -0.0400
    1W        W38676   5.837  18.254   8.351 -0.1873 -0.1808  0.1706
    1W        W38677  27.174  20.707   7.267  0.0982  0.0061  0.2216
    1W        W38678   9.854   1.723   3.671 -0.2281 -0.0021 -0.0307
    1W        W38679   8.747   4.183   9.242 -0.0861  0.0776 -0.0815
    1W        W38680  27.415  13.317   2.385 -0.0815 -0.0872 -0.3649
    1W        W38681   4.551  28.129   7.163 -0.3669 -0.1142  0.0495
    1W        W38682   6.344  20.018   8.341 -0.1799  0.0768  0.3206
    1W        W38683   2.508  15.283   0.011 -0.0109  0.0846  0.4272
    1W        W38684   7.330  23.290   5.715 -0.0778 -0.5658 -0.2247
    1W        W38685  17.995  10.018   9.427  0.1565 -0.1948 -0.0967
    1W        W38686  10.981  20.304   8.581  0.2888  0.1124 -0.5101
    1W        W38687   1.257   4.662   9.040 -0.2160  0.4839  0.0462
    1W        W38688   2.586   0.366   0.764 -0.0037  0.1255  0.0600
    1W        W38689   0.023  15.662   0.338 -0.0890  0.0837  0.1390
    1W        W38690   0.641  26.275   6.466  0.1749 -0.2757 -0.0125
    1W        W38691  17.980   3.117   8.958 -0.0224 -0.0227  0.0848
    1W        W38692  14.992  20.303   0.540  0.2227  0.1206 -0.1666
    1W        W38693  21.197  10.796   8.144 -0.0691 -0.0489 -0.0226
    1W        W38694  29.602  19.963   7.897 -0.0174 -0.0116 -0.0290
    1W        W38695  16.959  19.673   7.695 -0.1492 -0.0517 -0.2044
    1W        W38696   7.175  15.633   6.925  0.1829 -0.0624 -0.1216
    1W        W38697   4.581  10.415   0.088  0.0526 -0.2854 -0.0635
    1W        W38698  29.833  18.401   0.517 -0.0719 -0.1535  0.4079
    1W        W38699   0.457  29.807   8.849 -0.2300 -0.1585  0.1977
    1W        W38700  12.939  19.172   9.050  0.1499 -0.0422 -0.2048
    1W        W38701  21.467   9.571   8.504  0.0001 -0.1636 -0.0006
    1W        W38702   6.707  15.668   1.155  0.0780 -0.2027 -0.2180
    1W        W38703  22.897  11.637   1.365 -0.0672 -0.2236  0.1062
    1W        W38704   8.436  14.798   1.881  0.2719 -0.2529 -0.2271
    1W        W38705  28.361  16.997   2.507 -0.2274  0.0582  0.0696
    1W        W38706  16.680  12.907   8.211 -0.0367  0.0589  0.0268
    1W        W38707   0.883  10.311   1.725 -0.3135  0.2262 -0.1819
    1W        W38708  14.077  15.293   1.515  0.0772  0.1213  0.3392
    1W        W38709  29.399   6.584   1.459 -0.1877  0.0820 -0.3289
    1W        W38710  21.176   8.508   2.252  0.1872  0.1360  0.0595
    1W        W38711  25.323   0.234   8.404  0.1170 -0.0738  0.1335
    1W        W38712  26.447  29.511   8.891  0.0824 -0.1644 -0.0527
    1W        W38713  17.900  17.398   7.383  0.3145 -0.0549  0.0288
    1W        W38714  25.428   5.261   2.136  0.0011 -0.1012 -0.1086
    1W        W38715  28.612  16.472   1.167  0.1411 -0.1101 -0.1807
    1W        W38716  16.823  25.811   7.804  0.2202 -0.1579 -0.0676
    1W        W38717  19.587  22.413   5.633  0.2627  0.0711 -0.0241
    1W        W38718   8.144  26.371   8.808  0.3426  0.3513  0.1633
    1W        W38719   9.175  17.908   2.288 -0.0211 -0.2165  0.0410
    1W        W38720  11.839  15.733   8.344 -0.1895 -0.3705  0.0958
    1W        W38721  16.077  14.823   0.488  0.3439 -0.1223  0.0090
    1W        W38722  19.359   2.087   2.636 -0.1374  0.1425  0.0514
    1W        W38723  25.127  26.300   0.787  0.0033  0.1825 -0.0806
    1W        W38724  20.045   2.544   7.719 -0.1290 -0.3489 -0.1911
    1W        W38725  24.221  24.422   0.054 -0.0093  0.0574 -0.1045
    1W        W38726   0.497   6.785   9.277 -0.0936 -0.3378 -0.0192
    1W        W38727  25.095  23.321   3.608 -0.2212 -0.4356  0.2250
    1W        W38728  21.771  10.083   8.605 -0.0296 -0.1371 -0.1851
    1W        W38729   3.386  22.792   2.156  0.1930 -0.0769  0.2700
    1W        W38730  23.860  27.729   8.210 -0.1872  0.0472  0.0175
    1W        W38731  12.586  17.578   1.545  0.2904  0.1472 -0.3480
    1W        W38732  20.885   7.441   9.374  0.2315  0.0275 -0.0734
    1W        W38733  25.175  15.475   0.133  0.2012  0.0237  0.1855
    1W        W38734   4.603  14.422   7.930 -0.0825  0.2048  0.0352
    1W        W38735  11.707   6.756   7.178  0.0619  0.4604 -0.0491
    1W        W38736  26.141  10.835   7.812  0.1252 -0.1333 -0.0828
    1W        W38737  12.988   1.952   7.768 -0.0156  0.2915 -0.1525
    1W        W38738  27.222  11.037   7.665 -0.0245  0.0393  0.0239
    1W        W38739  10.125  12.260   7.015  0.1016  0.1829  0.2446
    1W        W38740  10.491   7.060   7.498  0.2407  0.0172 -0.0543
    1W        W38741  17.880  24.617   1.142  0.2830 -0.0543 -0.0195
    1W        W38742  19.999  28.709   1.466 -0.1353  0.0712  0.1447
    1W        W38743  24.002   0.857   1.858 -0.3320 -0.2553 -0.0864
    1W        W38744   5.014  20.108   7.721  0.2089 -0.1043 -0.1207
    1W        W38745   7.144  14.407   9.387 -0.3175 -0.2285 -0.0808
    1W        W38746  18.739  26.265   0.271  0.2706 -0.0113  0.0807
    1W        W38747  24.618  22.550   2.682 -0.1430  0.1009 -0.0803
    1W        W38748   0.108  13.705   8.587 -0.1383  0.2488  0.1937
    1W        W38749  12.419  20.930   6.278 -0.3776  0.3416  0.4040
    1W        W38750  25.990  27.146   6.788 -0.1020  0.2556  0.1822
    1W        W38751  12.707  14.322   0.076  0.0034  0.2430  0.1492
    1W        W38752  13.700  24.204   7.779  0.1363  0.1879  0.0256
    1W        W38753   6.853  17.795   7.666  0.1935  0.0100  0.1244
    1W        W38754   3.555  27.333   6.940  0.0395 -0.0999 -0.0798
    1W        W38755  11.218  18.351   6.564 -0.2126  0.2159  0.2575
    1W        W38756   5.808   7.758   1.651 -0.0665  0.0793 -0.1122
    1W        W38757  11.168  16.358   1.562  0.0182  0.0424 -0.1816
    1W        W38758  26.435   0.778   0.095 -0.0436  0.1444  0.1100
    1W        W38759  20.019  29.236   8.794 -0.0594  0.2727 -0.0879
    1W        W38760   6.754  23.312   8.490  0.2609 -0.2495  0.4558
    1W        W38761   2.743  20.936   8.243  0.4523 -0.1994 -0.1703
    1W        W38762   7.953  17.079   0.836 -0.0840 -0.1457 -0.1076
    1W        W38763  26.754  28.007   9.497 -0.0420  0.4038 -0.2776
    1W        W38764   6.524  23.912   7.929  0.1423 -0.1695  0.0022
    1W        W38765  26.733   8.195   9.230 -0.3911 -0.1437 -0.1740
    1W        W38766  13.086  27.699   6.717 -0.0220 -0.1072 -0.1149
    1W        W38767   3.839  11.550   6.618  0.3660 -0.1575 -0.2318
    1W        W38768  23.947  18.411   1.919 -0.2900  0.1485 -0.2176
    1W        W38769  17.044   7.913   0.315 -0.1062 -0.0240 -0.1972
    1W        W38770   7.722   7.776   7.046 -0.2089  0.1384  0.0705
    1W        W38771   8.956  19.957   8.392 -0.1089 -0.3933  0.0794
    1W        W38772   2.076  12.551   2.492 -0.2324 -0.0279 -0.3038
    1W        W38773  26.916  11.737   0.239 -0.1471 -0.0533  0.0084
    1W        W38774   2.372  22.663   2.128  0.0454  0.2972  0.0466
    1W        W38775  24.806  25.013   2.388  0.0914 -0.2504  0.3081
    1W        W38776  17.316  11.980   9.089 -0.0048 -0.2325 -0.2343
    1W        W38777  13.032  21.943   8.691 -0.4314  0.1159  0.1078
    1W        W38778  14.189   6.821   0.460  0.0760  0.3220 -0.0716
    1W        W38779   6.359  29.561   9.126  0.1370 -0.1640  0.2778
    1W        W38780   3.848   9.529   9.153 -0.0088 -0.3178  0.3675
    1W        W38781   2.134  25.012   7.708  0.3976  0.2508 -0.2249
    1W        W38782  16.996  13.363   7.339 -0.1061  0.4014  0.0746
    1W        W38783  28.718  25.097   6.892  0.4241 -0.1705 -0.0591
    1W        W38784  28.607   8.373   0.261 -0.1495  0.2296  0.3285
    1W        W38785  24.108  10.467   1.596  0.0280  0.0962 -0.0983
    1W        W38786  26.652  16.729   8.587  0.1539  0.1386 -0.3122
    1W        W38787   6.025  16.340   8.549  0.1183  0.0830  0.1194
    1W        W38788   1.490   6.484   1.427  0.0946  0.3509 -0.0361
    1W        W38789  27.526  25.509   7.102  0.2950  0.3329  0.1090
    1W        W38790  19.363  23.931   0.100 -0.0417 -0.2502 -0.0037
    1W        W38791  19.841   4.802   1.616 -0.4650  0.1006 -0.1294
    1W        W38792  23.124  18.885   8.146  0.1164  0.3837  0.2560
    1W        W38793  20.700  25.532   7.768  0.1780 -0.1278 -0.2397
    1W        W38794   3.197  29.256   1.459 -0.2834 -0.0604  0.0195
    1W        W38795  15.523   7.839   0.214 -0.1259  0.3022 -0.3078
    1W        W38796   0.998   1.542   1.688  0.1427 -0.2239  0.2317
    1W        W38797  22.707   3.225   4.028  0.1875  0.1438  0.0699
    1W        W38798  25.750  17.024   8.576 -0.0351  0.4972  0.3035
    1W        W38799   4.103  19.093   6.412  0.0418  0.2475 -0.1253
    1W        W38800  21.995  18.134   0.364  0.0268  0.2080 -0.1103
    1W        W38801  17.816  22.850   1.573 -0.2173 -0.0818 -0.1345
    1W        W38802   8.174  14.512   6.283 -0.3080  0.0888  0.0113
    1W        W38803  19.406  21.326   9.026 -0.0735 -0.1508 -0.0228
    1W        W38804   1.802  13.858   2.659  0.1428 -0.1566 -0.0267
    1W        W38805  21.959   0.543   0.366 -0.1754 -0.0748 -0.0567
    1W        W38806  25.817  20.599   7.982 -0.1260 -0.0467 -0.1408
    1W        W38807  11.323  29.028   7.815  0.2239 -0.2727 -0.0645
    1W        W38808   6.712   6.563   6.803 -0.1158 -0.0545 -0.0199
    1W        W38809   1.134  22.123   9.524 -0.1300 -0.1474 -0.0477
    1W        W38810   8.649   0.333   2.415  0.0090  0.1009 -0.1558
    1W        W38811  27.297  17.246   0.849  0.1412 -0.3279 -0.0159
    1W        W38812  14.761  29.418   2.202  0.2513  0.3324  0.2555
    1W        W38813  11.549  20.919   6.321 -0.0239 -0.0874  0.1469
    1W        W38814  10.627   6.881   8.563 -0.0808  0.0140  0.0141
    1W        W38815  20.071   0.095   2.771  0.0658 -0.2538  0.2440
    1W        W38816  13.404  15.553   8.252 -0.1628 -0.0723 -0.0368
    1W        W38817  24.411  20.132   6.735  0.0058 -0.1873  0.0427
    1W        W38818  15.095  23.634   0.871  0.1848  0.1012 -0.3013
    1W        W38819  18.930  25.216   8.251 -0.1354  0.3735  0.1842
    1W        W38820   9.828   2.683   1.925 -0.1484 -0.1055  0.0543
    1W        W38821  12.622  25.381   7.438  0.1711 -0.1380  0.1607
    1W        W38822  13.835   5.892   3.860  0.2213 -0.1450 -0.2079
    1W        W38823  23.065   7.802   9.295  0.1048 -0.0248 -0.4357
    1W        W38824  20.387  28.077   2.998  0.1130 -0.4719 -0.1240
    1W        W38825   7.558  22.257   8.033  0.0578 -0.0598 -0.1063
    1W        W38826  11.199   9.516   8.343  0.0204  0.2441 -0.0167
    1W        W38827  10.358  21.147   8.086  0.0021 -0.0408  0.1503
    1W        W38828  19.707  16.379   7.139 -0.4240  0.3353 -0.1505
    1W        W38829  25.661  18.337   8.833 -0.2274  0.1674  0.1188
    1W        W38830  29.374  22.553   7.316  0.2116  0.0230  0.0505
    1W        W38831  17.774  26.800   7.612  0.0367  0.3773  0.1596
    1W        W38832  13.770  15.528   7.823 -0.1715  0.0901  0.1395
    1W        W38833  15.541  22.848   4.979  0.0529  0.4928 -0.4411
    1W        W38834  16.099  21.606   0.639 -0.0058 -0.1777  0.0901
    1W        W38835  27.486  12.242   7.601  0.2544 -0.0801 -0.2323
    1W        W38836  28.221  15.217   9.054  0.1241 -0.0801  0.1413
    1W        W38837  24.360   8.114   2.536  0.0293  0.0231 -0.2281
    1W        W38838  13.000  26.018   5.910  0.3191  0.2082 -0.2398
    1W        W38839  19.037  23.388   0.192  0.1385  0.0344 -0.2377
    1W        W38840   8.348  25.950   6.552  0.0397 -0.4098  0.0592
    1W        W38841  14.781  17.322   8.101 -0.2037  0.2506 -0.0593
    1W        W38842  28.065  26.716   1.142  0.0774  0.1391  0.2944
    1W        W38843   8.920  12.452   7.516  0.0875  0.1749 -0.2780
    1W        W38844  21.536  18.008   5.821 -0.0578  0.1761  0.1957
    1W        W38845  27.741  16.276   7.661 -0.2329 -0.1690 -0.1504
    1W        W38846  12.891   7.744   8.151 -0.0681  0.0390  0.0268
    1W        W38847  17.227  24.910   6.102  0.2803  0.2183  0.0601
    1W        W38848   7.589  26.259   7.832  0.1204  0.3541  0.3188
    1W        W38849  25.198  26.917   9.116  0.1668  0.0002  0.2619
    1W        W38850  20.578  14.557   1.100  0.2728  0.0137 -0.3660
    1W        W38851  11.256  25.685   9.138 -0.2228  0.0325  0.1800
    1W        W38852  20.963   7.165   8.974  0.4359  0.0707 -0.2445
    1W        W38853  11.971  10.269   7.051 -0.1343 -0.0676 -0.1703
    1W        W38854  14.742   6.726   8.223 -0.1531  0.1229 -0.3095
    1W        W38855  27.831  19.455   1.416 -0.1692 -0.0320 -0.3267
    1W        W38856   5.858   4.174   9.468 -0.0330  0.0728  0.4328
    1W        W38857  28.071  17.380   2.369  0.1371 -0.0976 -0.1019
    1W        W38858  25.502  17.360   7.305 -0.1413 -0.0914  0.2296
    1W        W38859  14.394  29.369   3.382  0.3153  0.1078  0.0482
    1W        W38860   6.905  29.673   0.538  0.0170  0.0812 -0.0751
    1W        W38861  19.944   5.765   9.432 -0.0248  0.2157 -0.0196
    1W        W38862  21.043  24.330   6.342 -0.3114 -0.0465  0.5378
    1W        W38863   1.913   0.718   2.621 -0.0068 -0.0634  0.3862
    1W        W38864  23.192   8.967   8.891 -0.1606  0.1482  0.0985
    1W        W38865  28.813  28.516   1.222 -0.0346  0.1024  0.0104
    1W        W38866   3.573  25.838   6.504 -0.2243 -0.2956  0.1065
    1W        W38867   2.245  21.813   1.503 -0.0034 -0.0893  0.0966
    1W        W38868  17.349  26.888   7.363 -0.1299  0.0420 -0.0455
    1W        W38869   3.426   7.489   7.360  0.2236 -0.0570  0.0538
    1W        W38870   2.603   4.501   3.369  0.0935 -0.2850 -0.0596
    1W        W38871  20.274  22.483   9.261 -0.0666  0.1058 -0.1778
    1W        W38872  15.887  14.363   9.266  0.0008  0.1898 -0.0563
    1W        W38873  18.064  16.860   2.436 -0.0149 -0.1462 -0.1078
    1W        W38874  28.152   8.327   8.305  0.0825 -0.2803 -0.1244
    1W        W38875   7.049  26.219   8.072  0.0195 -0.1282 -0.1235
    1W        W38876   7.421  23.681   7.908 -0.0657  0.2943  0.3448
    1W        W38877  15.560   3.312   0.353 -0.2656  0.2576 -0.0514
    1W        W38878  16.878  13.182   7.783  0.2194 -0.1691 -0.0344
    1W        W38879  26.254  26.688   1.373  0.1265  0.0492  0.1671
    1W        W38880   7.635  13.078   1.371 -0.1798 -0.3716 -0.0054
    1W        W38881  16.105  16.409   6.492 -0.1950  0.0136 -0.1690
    1W        W38882  27.266  27.185   6.766 -0.0407 -0.1055  0.0069
    1W        W38883   4.980  25.278   1.174 -0.2547  0.1664  0.1891
    1W        W38884  26.828  26.335   2.451  0.1758  0.1346  0.0139
    1W        W38885   6.905  10.755   7.239 -0.3940  0.3384 -0.3567
    1W        W38886  28.339  29.785   1.407 -0.0473 -0.1897 -0.3273
    1W        W38887   9.355   8.906   7.345 -0.1532  0.1405 -0.0653
    1W        W38888   8.833  25.250   1.216  0.2492 -0.2390 -0.0112
    1W        W38889   5.409  12.082   8.989  0.0673 -0.1055  0.1274
    1W        W38890  26.059   9.703   8.986 -0.1200 -0.0213  0.0712
    1W        W38891   3.264   0.287   0.364  0.1942 -0.2155 -0.2778
    1W        W38892  12.091  14.394   7.298 -0.0349  0.0534 -0.0732
    1W        W38893  27.918  28.639   1.704  0.3205  0.2245  0.1515
    1W        W38894  27.340   8.462   7.329  0.2605 -0.3890 -0.1418
    1W        W38895  26.752   6.395   1.698  0.0685  0.0225  0.2760
    1W        W38896  28.522   0.510   0.241  0.1568 -0.1530  0.0129
    1W        W38897  26.654   4.232   7.622 -0.0252 -0.2199  0.0293
    1W        W38898  10.612   0.902   0.031  0.4604 -0.0895  0.1013
    1W        W38899  18.762  18.683   7.719 -0.0657 -0.0080 -0.0927
    1W        W38900   6.127  12.586   8.003  0.0443 -0.0805  0.0844
    1W        W38901   4.911  18.624   8.457  0.0452 -0.1166 -0.2088
    1W        W38902  15.850   6.073   8.638 -0.3119  0.0559 -0.0745
    1W        W38903  28.035  23.232   9.284  0.0700 -0.1339  0.2300
    1W        W38904  25.143  26.108   1.856  0.0272  0.2407  0.1407
    1W        W38905  26.393  26.954   1.909 -0.0320  0.2897  0.0353
    1W        W38906  21.579  20.363   1.368  0.0425 -0.1131 -0.1032
    1W        W38907  24.624   0.897   1.817 -0.0548 -0.2432  0.1825
    1W        W38908  17.572  12.690   0.818  0.1030 -0.0378 -0.1410
    1W        W38909   7.952  15.990   2.751  0.1146 -0.0599  0.1414
    1W        W38910  20.053  17.493   5.462 -0.1231  0.0847  0.0597
    1W        W38911  18.022   2.616   4.259  0.2926  0.0624 -0.0046
    1W        W38912   2.958   1.006   8.275  0.0842 -0.0896 -0.2609
    1W        W38913   9.428  15.711   0.638  0.1966 -0.0820 -0.3782
    1W        W38914   9.247  23.891   1.611 -0.1783  0.0651  0.0204
    1W        W38915   6.464   9.092   0.566 -0.0456  0.0177 -0.0147
    1W        W38916   8.422   2.922   2.544 -0.1322  0.1586  0.0593
    1W        W38917  25.008  12.587   1.600  0.0671  0.0367 -0.0784
    1W        W38918  21.807   1.322   0.879  0.1554 -0.0714  0.0096
    1W        W38919  15.186  27.244   1.734 -0.1520  0.0419  0.1225
    1W        W38920  16.883   4.763   8.734 -0.1823 -0.0732 -0.1495
    1W        W38921   9.500  20.070   7.856  0.0010  0.6150  0.0122
    1W        W38922  15.411  15.615   9.017  0.2611 -0.3148 -0.1518
    1W        W38923  18.825  17.293   1.215 -0.1729 -0.1332  0.4741
    1W        W38924  28.694  13.228   7.616 -0.1499  0.0690 -0.2995
    1W        W38925  28.633  14.839   0.820  0.0643  0.0299  0.0267
    1W        W38926   4.066  16.659   3.099  0.0210 -0.0826 -0.2657
    1W        W38927   6.357  18.423   1.178  0.3526 -0.0340 -0.1432
    1W        W38928   3.756  23.085   8.776 -0.2772 -0.0184  0.2800
    1W        W38929  19.563   2.554   9.099 -0.1873 -0.0557 -0.0825
    1W        W38930  10.885  15.983   9.428 -0.1001  0.4792  0.1647
    1W        W38931  16.623   2.592   2.276  0.0141  0.2980 -0.2141
    1W        W38932  18.757  23.773   1.851  0.2700 -0.1160 -0.1552
    1W        W38933   7.680   0.651   1.512 -0.4043  0.1951  0.1568
    1W        W38934  21.407  10.255   8.207 -0.1749  0.1468 -0.1557
    1W        W38935   8.069  14.247   2.397  0.1832 -0.0667 -0.0045
    1W        W38936  13.639  11.353   1.142 -0.1356 -0.2300  0.2211
    1W        W38937  22.882  11.549   1.887 -0.1266  0.1419  0.1400
    1W        W38938  19.261  19.533   8.698 -0.4602 -0.0315  0.0400
    1W        W38939  11.045  11.829   8.419 -0.2766  0.1594 -0.0284
    1W        W38940  23.300  23.885   7.153 -0.2944 -0.0938 -0.0105
    1W        W38941  21.170  19.558   8.607  0.3103 -0.0552 -0.0631
    1W        W38942  10.920  13.430   7.600  0.0971 -0.2764  0.1364
    1W        W38943  27.296  27.233   1.077 -0.1438  0.1349 -0.1484
    1W        W38944  16.793  15.521   6.720 -0.1485 -0.1386 -0.2266
    1W        W38945  23.254  25.900   7.237  0.0665 -0.0675 -0.0819
    1W        W38946  24.555   8.386   1.363 -0.1650 -0.3001  0.2963
    1W        W38947  13.324   5.913   8.865 -0.0215  0.1308  0.1238
    1W        W38948  21.968  11.766   2.332  0.0297 -0.2951 -0.0324
    1W        W38949   6.306  16.834   8.667 -0.1929  0.0344 -0.2599
    1W        W38950  21.676  19.260   2.016  0.3655  0.2519 -0.0252
    1W        W38951  19.167   8.388   2.183 -0.1105  0.0369 -0.0833
    1W        W38952   9.842   1.580   3.207 -0.0242 -0.1204 -0.1232
    1W        W38953  16.274   5.316   0.143  0.1388  0.1214 -0.0094
    1W        W38954   9.940  23.057   6.133 -0.0115  0.1121 -0.1181
    1W        W38955   4.421  26.722   1.620 -0.3138  0.1550  0.0595
    1W        W38956  15.120   6.438   8.683  0.0802 -0.1966  0.2683
    1W        W38957  12.543  18.933   1.324 -0.2301  0.0904  0.0032
    1W        W38958  21.305  26.252   1.204  0.4072 -0.0544  0.1893
    1W        W38959   6.390   5.701   8.919 -0.5170 -0.1184 -0.0065
    1W        W38960  29.786  24.743   1.657  0.3818  0.0130 -0.2159
    1W        W38961   0.718  11.991   2.683 -0.2036 -0.0340  0.2066
    1W        W38962  19.535   1.979   9.401  0.0881 -0.1095  0.1238
    1W        W38963   4.443  27.590   7.700 -0.2708 -0.0665 -0.0881
    1W        W38964   1.638  20.770   0.820 -0.1759  0.0268  0.2489
    1W        W38965  12.767  29.197   9.425  0.0153 -0.0072  0.0186
    1W        W38966  26.405   6.326   7.893 -0.0473 -0.2005  0.1595
    1W        W38967  29.536   0.793   7.494 -0.0675 -0.2690 -0.4805
    1W        W38968  21.620  26.921   7.461  0.2877  0.0300 -0.3023
    1W        W38969  12.076  22.202   0.383 -0.0377 -0.0633  0.0129
    1W        W38970   7.963   4.893   9.432 -0.1502 -0.1253  0.1232
    1W        W38971  16.139  19.703   6.250 -0.2535 -0.2682  0.2788
    1W        W38972  21.296   3.230   0.746 -0.0394  0.2972 -0.1034
    1W        W38973  20.383  18.260   7.196 -0.1553  0.0442  0.1587
    1W        W38974   2.557  17.477   8.013  0.2122 -0.2217  0.1457
    1W        W38975  21.158   4.651   2.950 -0.1271  0.2085  0.0441
    1W        W38976   0.895  11.825   2.181 -0.0745  0.0491  0.0697
    1W        W38977  15.846  16.439   1.265 -0.0510 -0.0668  0.1841
    1W        W38978   1.316  16.095   1.069  0.0912  0.1337 -0.0637
    1W        W38979   3.189  12.008   2.924 -0.1284  0.2539 -0.1046
    1W        W38980   9.837  28.177   8.683 -0.3485  0.2847  0.0804
    1W        W38981   2.888  19.557   9.180 -0.1188 -0.1858 -0.0933
    1W        W38982  21.255  15.384   1.283  0.4585  0.1810  0.3107
    1W        W38983  13.740  28.243   0.499 -0.5776  0.0947  0.0213
    1W        W38984  22.164  12.143   1.843  0.0787  0.3376  0.0810
    1W        W38985  18.614  18.580   0.540 -0.1733  0.2677 -0.0738
    1W        W38986   3.360  18.467   8.389  0.3380 -0.0105 -0.0496
    1W        W38987  11.300  14.076   6.982  0.0462 -0.0269 -0.4373
    1W        W38988  16.070   1.613   7.766 -0.1013 -0.1213 -0.0826
    1W        W38989  12.648  15.792   5.991  0.2325 -0.1333 -0.1346
    1W        W38990   5.969  26.395   7.796 -0.4037 -0.0415 -0.0221
    1W        W38991  11.244  19.519   7.313 -0.1738 -0.0641 -0.0438
    1W        W38992   1.139  26.647   8.556  0.0574 -0.2126  0.1718
    1W        W38993  19.490  27.220   8.383 -0.0102  0.0424  0.0636
    1W        W38994  12.233  29.034   2.410  0.1476  0.5674 -0.0884
    1W        W38995  22.728  15.084   0.950 -0.1202 -0.1893 -0.0552
    1W        W38996  28.395   0.953   1.610 -0.0216 -0.0105 -0.0659
    1W        W38997  29.114  23.581   8.415  0.0429 -0.1167 -0.1461
    1W        W38998   6.422  27.334   0.283  0.0634  0.2077 -0.2982
    1W        W38999  23.323  27.310   9.324  0.3587  0.0922 -0.1094
    1W        W39000  18.032  20.385   7.223  0.0499  0.2180  0.0783
    1W        W39001  26.791  18.311   9.306  0.1760  0.1732 -0.2458
    1W        W39002   0.245  21.777   6.779 -0.1935  0.0714 -0.0863
    1W        W39003  22.310  28.479   1.656  0.0891  0.1052  0.1820
    1W        W39004   2.199  28.418   0.065  0.0542  0.1885 -0.0122
    1W        W39005   7.795   6.012   1.496  0.0855 -0.0514 -0.2052
    1W        W39006  12.075   6.873   1.094 -0.1633 -0.1489  0.1022
    1W        W39007   8.329   7.775   1.668 -0.2323  0.1880  0.1605
    1W        W39008  18.104  19.470   7.579 -0.1969 -0.0239  0.4230
    1W        W39009   1.591  26.276   1.198  0.1369 -0.4552  0.0788
    1W        W39010   5.954   6.244   1.478  0.0635 -0.2044 -0.2705
    1W        W39011  18.534  16.341   6.898  0.1243 -0.1489  0.0821
    1W        W39012  24.569  26.633   7.536 -0.1346 -0.0239  0.4154
    1W        W39013   4.539  10.819   7.598  0.1765  0.0256  0.0232
    1W        W39014  10.525  24.520   1.211 -0.0410 -0.1934 -0.1604
    1W        W39015  13.947  29.845   0.179 -0.0491 -0.0067  0.0453
    1W        W39016  23.904  17.469   7.377  0.0447 -0.0732 -0.1114
    1W        W39017  27.207  19.857   1.040 -0.1584 -0.1733 -0.2346
    1W        W39018   5.552  28.409   2.567 -0.0833 -0.1008 -0.0279
    1W        W39019  23.520  13.873   0.267  0.1769  0.3814  0.0062
    1W        W39020  10.390  13.768   0.904  0.1732 -0.2918  0.0570
    1W        W39021   8.059  17.421   6.853 -0.1162  0.0291 -0.2832
    1W        W39022  29.500  18.630   8.545  0.1028 -0.2118  0.1623
    1W        W39023   5.539  26.968   8.621 -0.4193 -0.0308 -0.0672
    1W        W39024  24.596  24.435   2.550 -0.1080  0.3044  0.0554
    1W        W39025  15.671  19.638   6.042  0.0716 -0.0244 -0.1874
    1W        W39026   2.839  16.469   6.443  0.1015 -0.0546  0.2164
    1W        W39027   0.954  17.136   7.970  0.0856 -0.1785  0.1120
    1W        W39028  13.808   5.428   0.417 -0.1580 -0.1553 -0.0813
    1W        W39029  28.230  14.658   9.223  0.0521 -0.0558 -0.2755
    1W        W39030   7.714   4.034   0.143 -0.1866 -0.1139 -0.1780
    1W        W39031  26.829  13.467   1.431 -0.3887  0.0801 -0.0927
    1W        W39032   8.908  14.971   0.468 -0.0605  0.0382  0.0001
    1W        W39033   2.296  28.801   8.893 -0.3350 -0.2095 -0.0172
    1W        W39034   5.158  20.624   2.901  0.2469  0.0752  0.0267
    1W        W39035  20.946  26.094   8.671 -0.0320 -0.2132 -0.2633
    1W        W39036  15.814   6.224   0.971  0.1069  0.0327 -0.2555
    1W        W39037  16.096  14.247   0.605 -0.0690  0.0663 -0.1361
    1W        W39038  22.574  28.667   8.631 -0.0318  0.0776  0.2273
    1W        W39039   7.135  20.958   8.879  0.2443  0.1157 -0.0950
    1W        W39040  25.754  25.835   0.949 -0.0782 -0.0842 -0.0313
    1W        W39041  29.491   4.894   3.146  0.3207  0.0098  0.0130
    1W        W39042  22.273  17.611   6.414 -0.0912 -0.2997 -0.1450
    1W        W39043  10.807  21.191   8.977  0.0142  0.0035 -0.1713
    1W        W39044  27.628  17.129   9.354 -0.2478  0.3037  0.1570
    1W        W39045  21.522  20.615   6.622  0.0696 -0.1212 -0.1156
    1W        W39046  13.631  16.750   0.663  0.1038  0.0730 -0.0382
    1W        W39047  25.311  23.958   7.969  0.0329 -0.1655  0.0550
    1W        W39048   5.800  19.126   7.840 -0.0973 -0.1611  0.2885
    1W        W39049   6.709  21.851   7.850 -0.2591 -0.0859  0.1378
    1W        W39050  27.794   8.966   2.874 -0.0512 -0.1664  0.0876
    1W        W39051  13.440  16.960   7.738  0.1082 -0.0705  0.0911
    1W        W39052  21.119   0.976   2.064 -0.0121  0.0615  0.2344
    1W        W39053  22.132  13.582   2.196  0.0973 -0.1076  0.3551
    1W        W39054  29.336  25.249   6.313  0.1610  0.1855 -0.3047
    1W        W39055  15.468  16.227   9.026 -0.2342 -0.2040  0.2848
    1W        W39056  25.024  14.589   8.951 -0.0007 -0.0987 -0.3828
    1W        W39057  23.879  23.901   8.026 -0.1773 -0.0058  0.2172
    1W        W39058  14.220  19.561   8.506 -0.1455  0.2241 -0.2421
    1W        W39059  23.545  26.203   0.872  0.1937 -0.2086  0.1173
    1W        W39060   4.827  20.364   6.213  0.3070  0.1549  0.0208
    1W        W39061  29.052  14.019   8.871  0.2170 -0.0898 -0.5321
    1W        W39062  10.348  22.165   9.026 -0.1208 -0.0238 -0.2182
    1W        W39063  16.535  16.433   7.482  0.0450 -0.1892 -0.1172
    1W        W39064   2.016  26.696   8.078 -0.2036  0.0485 -0.3501
    1W        W39065  19.325  17.302   9.215 -0.1546 -0.0905  0.0885
    1W        W39066   9.854   3.118   2.766 -0.1752  0.2268  0.0397
    1W        W39067  28.477  27.686   2.605  0.0815  0.1814  0.2479
    1W        W39068  20.464  24.488   8.840  0.3051 -0.3088  0.1544
    1W        W39069  14.016  22.440   8.970  0.0384  0.3623 -0.0836
    1W        W39070   5.180  19.614   0.598  0.1643  0.0613  0.0772
    1W        W39071  25.139   8.227   0.537 -0.2198 -0.0529 -0.0331
    1W        W39072   1.058  27.939   6.867 -0.0939  0.0025  0.1578
    1W        W39073  12.623   6.556   8.767 -0.1258  0.0534 -0.1871
    1W        W39074  17.980  22.912   8.457 -0.2613  0.1506  0.0213
    1W        W39075  10.010  10.986   1.769 -0.0376  0.5318  0.3026
    1W        W39076   1.833  19.359   9.135 -0.0340  0.2511  0.2034
    1W        W39077  19.448  23.854   0.579  0.3323  0.2903  0.0452
    1W        W39078   0.683  11.933   3.352  0.0700  0.0511  0.1333
    1W        W39079   9.417   9.749   8.148  0.2837  0.0452  0.2351
    1W        W39080  22.368  14.871   8.317 -0.1529  0.0738  0.4208
    1W        W39081  19.985  24.391   7.707  0.0319 -0.1412  0.1470
    1W        W39082   5.092   1.057   0.392 -0.0334  0.1084 -0.0497
    1W        W39083   1.336   7.445   7.627  0.1424  0.0838  0.0703
    1W        W39084  20.204  12.606   2.257  0.0813  0.1160 -0.1811
    1W        W39085   6.209   1.688   2.722 -0.2765  0.3308  0.0205
    1W        W39086   5.564  28.062   8.769  0.0596 -0.0543 -0.0110
    1W        W39087  29.290  27.640   6.629 -0.2004  0.0638  0.0198
    1W        W39088   6.930  17.273   0.229 -0.0102 -0.1304  0.0352
    1W        W39089  25.518   0.578   8.656 -0.4056 -0.1918  0.1236
    1W        W39090  12.252  17.209   2.785 -0.3418 -0.1389  0.2004
    1W        W39091   4.327  14.674   2.634 -0.2332 -0.1020 -0.0015
    1W        W39092  26.712   4.240   1.409 -0.1858 -0.1688  0.0116
    1W        W39093  22.968   5.301   9.435 -0.0354 -0.1611 -0.2233
    1W        W39094  22.479   5.175   1.519 -0.2609  0.0875 -0.0045
    1W        W39095   3.323  15.602   0.715 -0.2874  0.2769  0.0002
    1W        W39096  29.819   1.915   6.901  0.0030  0.0660 -0.0187
    1W        W39097   7.460  14.411   7.901 -0.2048 -0.4645 -0.3103
    1W        W39098  29.800  14.308   6.914  0.1778  0.2626 -0.3427
    1W        W39099  10.115   3.619   7.979  0.1796 -0.2490 -0.1099
    1W        W39100  21.459  21.457   9.083 -0.1963  0.0410  0.0982
    1W        W39101   0.229  22.140   7.958 -0.0762  0.2195  0.4206
    1W        W39102   3.102   4.897   6.635  0.0689  0.1902 -0.5361
    1W        W39103   4.389   4.651   0.534  0.0475  0.3910 -0.0880
    1W        W39104  12.865  13.064   7.095 -0.0911  0.0880  0.5604
    1W        W39105   3.536   3.036   8.406  0.0110  0.1763 -0.3001
    1W        W39106   8.311  10.170   2.118 -0.0914 -0.1369 -0.1243
    1W        W39107  26.339  22.034   0.343 -0.3210 -0.2580  0.1651
    1W        W39108  13.635   2.278   0.744 -0.0548 -0.2346 -0.4164
    1W        W39109  15.816   9.511   7.673 -0.0621  0.1997 -0.1587
    1W        W39110   0.108  18.825   8.489  0.1314  0.3315 -0.2552
    1W        W39111   9.077   8.263   1.543  0.1841 -0.1359  0.1292
    1W        W39112   1.203  21.310   2.979  0.0122 -0.1294  0.3394
    1W        W39113  22.839  24.212   6.144 -0.0117  0.1031  0.0008
    1W        W39114  18.382  28.218   9.109  0.2149  0.1298 -0.4928
    1W        W39115   6.014  25.834   0.172  0.1482  0.4609 -0.1124
    1W        W39116  11.252   3.874   3.841 -0.0905  0.0121 -0.0100
    1W        W39117  21.744  13.941   9.368  0.0008 -0.0362 -0.0120
    1W        W39118   9.530  10.981   0.611  0.3010  0.1214 -0.2665
    1W        W39119  15.478  24.160   7.671 -0.1103 -0.1419 -0.3161
    1W        W39120   7.290  29.645   6.365  0.2572 -0.1238 -0.0475
    1W        W39121   1.638   9.063   6.581  0.1527  0.0932 -0.0737
    1W        W39122   4.524  20.378   8.807  0.0700 -0.0076  0.1179
    1W        W39123  15.250  23.402   7.279 -0.0553  0.5212  0.3270
    1W        W39124   5.662  28.034   6.436  0.1343 -0.1380  0.0205
    1W        W39125  14.659  23.684   5.929 -0.0049  0.6023  0.2631
    1W        W39126   7.958   8.799   9.291 -0.1063 -0.1964 -0.0396
    1W        W39127  11.019   5.788   3.122 -0.0023 -0.1707  0.0886
    1W        W39128  28.133  19.920   1.515 -0.0417 -0.1181 -0.1132
    1W        W39129  18.127   5.135   8.702 -0.3069  0.3129  0.3780
    1W        W39130  24.383  23.177   8.938  0.0213  0.2727  0.0994
    1W        W39131  23.052  16.738   1.021  0.2109  0.0886 -0.0026
    1W        W39132  10.134  21.631   7.959  0.2158  0.2513  0.0302
    1W        W39133  21.596  23.938   9.509 -0.0356  0.0245 -0.1458
    1W        W39134   1.220   7.872   7.203  0.1788  0.2199 -0.1451
    1W        W39135   4.167  22.859   9.368  0.0819 -0.1050 -0.1925
    1W        W39136   2.825  12.374   7.881  0.2263  0.0287  0.0602
    1W        W39137  12.553   8.276   3.292  0.2608  0.0085 -0.0685
    1W        W39138  13.897   1.055   2.919  0.2902  0.1463  0.2796
    1W        W39139  24.692  20.447   9.338  0.1940  0.2061  0.1290
    1W        W39140  15.586  10.479   8.096 -0.2114 -0.0154  0.4314
    1W        W39141  28.029   0.014   9.009 -0.1410 -0.1953 -0.0473
    1W        W39142   6.336  16.026   1.642  0.0740 -0.0193 -0.1643
    1W        W39143   0.828   5.328   1.734 -0.1561 -0.0253  0.2121
    1W        W39144  18.375  29.111   1.814 -0.0309 -0.1903  0.1700
    1W        W39145  21.531  14.959   1.002 -0.4799  0.0574 -0.0836
    1W        W39146   4.750   5.385   7.931  0.3136  0.2033  0.0288
    1W        W39147   4.992  21.046   9.472  0.1969 -0.1752  0.3761
    1W        W39148  20.575  27.725   6.964 -0.0293 -0.1555 -0.2780
    1W        W39149  18.821  27.684   1.580  0.0680 -0.0347 -0.2680
    1W        W39150  29.648  26.146   6.637 -0.0728 -0.2193  0.0631
    1W        W39151  23.170   1.047   2.309 -0.0114  0.3838 -0.0064
    1W        W39152  16.856  16.610   1.540  0.2148  0.1095  0.0347
    1W        W39153  24.494  27.496   7.457  0.0398  0.0898 -0.1462
    1W        W39154   0.596  28.365   7.984  0.0792 -0.0711  0.0239
    1W        W39155  18.168  16.167   8.756  0.2511 -0.3061  0.1642
    1W        W39156  15.280  19.139   6.484  0.0298 -0.1031 -0.1652
    1W        W39157   8.134   6.777   9.420 -0.0581 -0.3478  0.0057
    1W        W39158   7.855  22.896   7.285  0.4690 -0.0412 -0.0449
    1W        W39159   3.081   5.258   7.833 -0.1825 -0.1077  0.1114
    1W        W39160  23.419  25.361   0.815 -0.3535 -0.0931  0.0619
    1W        W39161  12.756  13.752   0.867  0.1323  0.0529  0.0531
    1W        W39162   6.181  24.593   6.952 -0.2164 -0.1384  0.2431
    1W        W39163  17.299  29.637   0.264  0.2772 -0.1724 -0.0769
    1W        W39164   4.115  25.898   1.221 -0.3803  0.2382  0.2920
    1W        W39165  11.388   4.281   8.631  0.1519  0.2677 -0.0965
    1W        W39166  17.804   3.305   8.437 -0.0377 -0.2813 -0.0028
    1W        W39167   1.928  27.263   7.447  0.1399  0.0216 -0.0344
    1W        W39168   1.343  23.088   7.943 -0.1751  0.0838  0.0904
    1W        W39169   4.263  11.484   0.011 -0.0631 -0.0503  0.3306
    1W        W39170   1.298  21.963   7.057 -0.3492  0.0603  0.1415
    1W        W39171   5.357  12.597   1.395 -0.1369  0.1841  0.1604
    1W        W39172  29.636   1.839   7.815 -0.0065  0.1519  0.0820
    1W        W39173   5.910   8.758   1.495 -0.1594  0.1139 -0.2297
    1W        W39174  14.988  21.746   1.931  0.2816 -0.0722 -0.2187
    1W        W39175   6.380  10.983   2.364 -0.0660 -0.2538 -0.1250
    1W        W39176  21.024  18.687   7.867  0.0797  0.3110 -0.2532
    1W        W39177   8.035  29.810   7.663  0.1653  0.0692  0.0743
    1W        W39178   2.796   9.995   7.673  0.2301 -0.5484 -0.2214
    1W        W39179  16.787  29.054   7.114  0.0874 -0.0486  0.1079
    1W        W39180   9.086   0.990   8.429 -0.0309 -0.0351  0.2664
    1W        W39181   9.494  27.415   0.917  0.2422  0.3084 -0.2146
    1W        W39182  20.512  10.275   1.620 -0.0530 -0.1703  0.2897
    1W        W39183  11.639   9.437   8.606  0.2372  0.1352  0.3699
    1W        W39184   0.705   5.413   1.236 -0.2357 -0.0011 -0.2481
    1W        W39185   6.529   6.448   7.240  0.1424  0.0244  0.0455
    1W        W39186   0.021  13.582   2.020 -0.1782 -0.2230  0.0403
    1W        W39187  17.089  21.909   0.299  0.1142  0.1519 -0.0322
    1W        W39188  15.569  23.279   5.763  0.1537 -0.0368  0.1056
    1W        W39189  12.150  28.041   1.838  0.5166 -0.2792  0.0216
    1W        W39190  25.993  21.650   7.715 -0.1024 -0.1075 -0.0940
    1W        W39191   7.312  17.896   1.884 -0.1286 -0.0448 -0.1706
    1W        W39192   9.527  28.567   0.146  0.1001 -0.1986  0.1220
    1W        W39193  11.400   6.936   7.990  0.0089  0.1140 -0.3085
    1W        W39194  18.504   2.433   4.328  0.0789 -0.4166 -0.0568
    1W        W39195  15.191  29.832   8.418  0.0021  0.1312 -0.0844
    1W        W39196  18.460  19.587   6.676 -0.1183 -0.0949  0.0096
    1W        W39197  12.065  18.308   1.941 -0.0019 -0.1557  0.1350
    1W        W39198  10.524   6.075   3.120 -0.0435  0.3527 -0.0897
    1W        W39199   7.413  29.608   0.511  0.2112  0.0431 -0.2749
    1W        W39200  18.306  25.564   7.115  0.1433  0.0401 -0.1304
    1W        W39201  18.425  15.118   7.070 -0.1003  0.3034  0.2051
    1W        W39202   8.475  17.433   7.747 -0.1341  0.0477  0.2089
    1W        W39203  27.981   0.502   6.937 -0.1712  0.0574 -0.1810
    1W        W39204  21.953  12.961   7.819  0.0235  0.1108  0.0240
    1W        W39205  27.402  28.543   1.547 -0.2173 -0.0314  0.1927
    1W        W39206   9.825  29.145   1.388  0.1791 -0.0949  0.0597
    1W        W39207  11.591  24.805   7.955 -0.0419  0.2317 -0.2599
    1W        W39208  26.650   6.968   8.438  0.2222  0.2937 -0.0569
    1W        W39209  28.068  22.776   6.281  0.0907 -0.0838 -0.1901
    1W        W39210  10.850  26.005   2.556  0.3217  0.0867 -0.0765
    1W        W39211   2.788  16.896   0.942  0.2006 -0.0604  0.1347
    1W        W39212  10.773  23.994   8.824 -0.1538  0.1693  0.1558
    1W        W39213  12.083   7.102   8.524  0.1351  0.0273  0.3630
    1W        W39214   5.685  13.384   8.848  0.0858 -0.3229  0.3162
    1W        W39215   6.346  10.047   0.803  0.1327  0.1798  0.0369
    1W        W39216  24.009   6.102   8.107  0.0463  0.1739  0.0632
    1W        W39217  23.120  26.625   8.681 -0.1896  0.3651 -0.1489
    1W        W39218  11.685   1.941   9.317 -0.0457 -0.1290 -0.3077
    1W        W39219   6.213   3.773   2.482  0.1685  0.1189  0.0491
    1W        W39220  26.427  15.424   2.287 -0.0219 -0.2420 -0.2158
    1W        W39221  10.911  28.108   0.524  0.1540 -0.1881 -0.2636
    1W        W39222  20.823   9.809   0.906  0.0290 -0.1936 -0.1349
    1W        W39223  28.372   2.334   8.321  0.0998  0.1591 -0.0895
    1W        W39224  14.761  17.566   8.847 -0.3345  0.0006 -0.0691
    1W        W39225  10.431   6.786   2.520  0.0117  0.0793 -0.1248
    1W        W39226  28.460  12.845   7.342 -0.0730  0.0928 -0.2759
    1W        W39227   9.637  23.943   6.151 -0.0501  0.0002 -0.0453
    1W        W39228  13.837  22.721   9.282  0.2345  0.0749 -0.1799
    1W        W39229  27.548   3.078   1.479 -0.0938  0.0226 -0.2166
    1W        W39230  19.815  22.717   1.000 -0.2265 -0.1022 -0.1379
    1W        W39231   7.401   2.190   6.965 -0.2413 -0.1622  0.0358
    1W        W39232   6.279  17.016   6.459  0.3352 -0.0477  0.0949
    1W        W39233  25.172  13.904   1.317  0.1075 -0.3379 -0.1605
    1W        W39234   5.145  19.032   8.697  0.2156 -0.1561 -0.2083
    1W        W39235   3.451  26.157   5.795 -0.0854  0.2998 -0.1740
    1W        W39236   5.062  15.850   1.063  0.1935  0.0912 -0.0222
    1W        W39237  16.633  12.441   0.540  0.1300  0.1552 -0.0422
    1W        W39238  12.693  19.034   3.307 -0.0749 -0.1023  0.3173
    1W        W39239   8.580  13.238   1.640  0.4075  0.2822  0.0442
    1W        W39240  15.090  29.563   8.903 -0.0208  0.0265  0.0015
    1W        W39241  14.773   1.037   7.765 -0.0790 -0.2760  0.0257
    1W        W39242  27.327  22.386   1.917  0.2321 -0.0061 -0.2955
    1W        W39243   7.586   3.103   2.115 -0.1148 -0.3493  0.1186
    1W        W39244  28.297   3.997   6.868 -0.0176  0.1301 -0.0289
    1W        W39245   1.287  10.982   8.652  0.1412  0.0225  0.0161
    1W        W39246   7.876  15.461   1.132  0.2253  0.1403 -0.0557
    1W        W39247  17.879   1.388   1.405 -0.0505  0.1738  0.0534
    1W        W39248  26.395  15.917   0.377  0.0634 -0.1201 -0.0640
    1W        W39249  25.813   8.856   1.472 -0.3888  0.0811 -0.1571
    1W        W39250  26.877  11.284   1.212 -0.0680 -0.1125  0.1584
    1W        W39251  22.222  19.033   1.310 -0.2241  0.1107 -0.1131
    1W        W39252   5.115  26.833   6.729  0.1094  0.1526  0.0741
    1W        W39253  15.238   0.825   9.507 -0.2527  0.0750  0.1554
    1W        W39254  21.859  11.048   0.838  0.2160 -0.1222 -0.1917
    1W        W39255  13.543   1.923   1.829  0.2135 -0.0651 -0.0498
    1W        W39256  10.367   8.812   1.654 -0.1607  0.1960 -0.3728
    1W        W39257   0.017  21.798   2.385  0.2422  0.4194  0.4059
    1W        W39258  18.011  26.309   8.440  0.1792  0.0182 -0.0615
    1W        W39259  13.651   8.094   3.152 -0.0441 -0.0873 -0.2922
    1W        W39260   4.640  11.982   1.652  0.1072  0.2203  0.1056
    1W        W39261  12.016  25.389   1.900 -0.1891  0.2108 -0.1111
    1W        W39262  13.044  13.632   8.846 -0.2706 -0.0083  0.1448
    1W        W39263  29.588   2.992   2.225 -0.1359 -0.1289  0.1269
    1W        W39264   0.861  12.682   8.316  0.2006 -0.1931  0.1171
    1W        W39265   1.975  15.316   8.739  0.2135 -0.0353 -0.3906
    1W        W39266  19.765  13.707   7.646  0.1803 -0.1112  0.2183
    1W        W39267   5.654  11.797   8.001 -0.2796 -0.0197  0.3103
    1W        W39268  26.993  10.823   1.004 -0.3244  0.2687 -0.0225
    1W        W39269   4.388  24.757   8.200 -0.4310  0.3515  0.2663
    1W        W39270  18.451  20.002   8.154  0.0292  0.0304 -0.0620
    1W        W39271   5.287   4.560   1.420  0.1224 -0.1646 -0.1089
    1W        W39272  10.884  13.743   0.959 -0.1911  0.5004  0.0157
    1W        W39273  10.935  22.352   5.451 -0.1643  0.0481 -0.0650
    1W        W39274  22.944  11.482   0.216 -0.1892 -0.2665 -0.2037
    1W        W39275  13.030   8.657   0.153 -0.0255 -0.0060 -0.1453
    1W        W39276   4.986   1.567   7.367 -0.0805 -0.1379  0.1474
    1W        W39277  22.218  13.850   0.461 -0.1426  0.0351  0.0263
    1W        W39278  27.150   2.571   7.993 -0.0635 -0.0140  0.3525
    1W        W39279  25.908  23.655   7.444 -0.0620 -0.0254 -0.2487
    1W        W39280  21.174  15.436   2.442  0.1863 -0.1619  0.0620
    1W        W39281  23.986   3.513   8.762  0.3979  0.1970 -0.1489
    1W        W39282  26.455  12.337   2.579 -0.0776  0.0517  0.0391
    1W        W39283   5.571   9.362   1.336  0.0842  0.1161 -0.1492
    1W        W39284  21.035  23.214   1.150 -0.0861 -0.0381  0.2370
    1W        W39285  17.695  20.745   0.519  0.1903  0.1513  0.5018
    1W        W39286   6.392  20.387   7.265 -0.0369  0.0814  0.0819
    1W        W39287   9.030   7.459   0.317 -0.1904 -0.2237 -0.0768
    1W        W39288  28.891  26.605   8.316 -0.3075 -0.0208 -0.1290
    1W        W39289   4.657  28.952   0.861 -0.1546  0.4898 -0.1406
    1W        W39290   9.481  21.691   1.673  0.2174  0.1653  0.2522
    1W        W39291   6.101   9.759   2.257  0.0815 -0.0873 -0.4963
    1W        W39292  15.050   2.620   3.223 -0.2686  0.2572 -0.1249
    1W        W39293   3.580  26.824   2.036  0.2954  0.4199 -0.0658
    1W        W39294  29.145   3.020   2.415  0.0066  0.0992 -0.0702
    1W        W39295  19.990  29.227   0.254 -0.1683 -0.0323  0.1016
    1W        W39296   5.458  20.475   2.007  0.1023 -0.0599 -0.2730
    1W        W39297  17.970  15.048   6.779 -0.1589  0.1133  0.0334
    1W        W39298  18.076   9.447   7.944 -0.1545 -0.2489 -0.0865
    1W        W39299   9.162  21.498   8.358 -0.2398  0.1700  0.0017
    1W        W39300   3.511  16.719   6.780 -0.1267  0.3518  0.0535
    1W        W39301  21.922  28.487   0.525  0.3271  0.1233 -0.0089
    1W        W39302   8.261  18.721   8.169 -0.0446 -0.1535 -0.2715
    1W        W39303  20.138   7.714   9.018  0.1774 -0.1793  0.1187
    1W        W39304  14.759  15.539   9.490  0.1815  0.2659 -0.0030
    1W        W39305   0.751   8.002   8.759 -0.2000 -0.2725 -0.1529
    1W        W39306   4.371  28.019   1.837 -0.4142 -0.1530  0.1819
    1W        W39307   2.750   9.028   9.410 -0.1696 -0.2339  0.1832
    1W        W39308   0.809   7.540   8.374  0.1352  0.1048 -0.1105
    1W        W39309   2.539   6.975   2.178 -0.1004 -0.1956 -0.1711
    1W        W39310  14.307  20.955   8.284  0.0608 -0.1731  0.0706
    1W        W39311   2.433   1.317   6.660 -0.2854  0.2396  0.3835
    1W        W39312  21.313  29.226   2.882 -0.0827  0.3285  0.1076
    1W        W39313  14.186  12.897   7.648 -0.3379  0.0174  0.2618
    1W        W39314   5.258   7.326   8.758  0.1154  0.0987  0.0156
    1W        W39315  10.622   0.924   1.541 -0.2176 -0.0902  0.2811
    1W        W39316  22.237  23.312   0.240  0.0270 -0.1169 -0.2577
    1W        W39317  23.584   5.106   3.297 -0.3025 -0.0674 -0.2123
    1W        W39318   0.639  14.408   7.308  0.2731  0.1253 -0.3894
    1W        W39319  25.554   1.953   0.561 -0.1582  0.2315  0.0215
    1W        W39320  11.456  10.638   0.646  0.0465 -0.2015 -0.1061
    1W        W39321  14.316  29.567   2.087 -0.0919 -0.3679 -0.2419
    1W        W39322  16.930   8.214   1.157 -0.2039 -0.0925  0.4398
    1W        W39323   7.501   2.719   6.181  0.0796  0.0888 -0.2066
    1W        W39324  29.300   8.706   2.831 -0.1097  0.0863  0.0274
    1W        W39325  20.795   9.067   7.063 -0.0236 -0.1171  0.3983
    1W        W39326   1.603  26.894   7.855 -0.0265  0.2211 -0.2330
    1W        W39327   8.003   3.084   8.461  0.1196  0.0407 -0.1875
    1W        W39328  10.530   4.898   3.232 -0.0972 -0.0557  0.2016
    1W        W39329  29.577  24.027   6.925 -0.2268  0.0913 -0.0432
    1W        W39330  27.644  18.354   7.202  0.1667 -0.3925 -0.1470
    1W        W39331   6.790   0.679   1.491  0.0034 -0.0726 -0.2762
    1W        W39332  15.241  10.623   0.605 -0.1459 -0.2441  0.1146
    1W        W39333  28.811  19.780   0.224 -0.1744  0.2347  0.2740
    1W        W39334  25.207  15.012   7.441 -0.0381 -0.0026 -0.2478
    1W        W39335  26.058  28.667   7.397 -0.0602  0.1411  0.0646
    1W        W39336  19.621   9.120   9.174  0.1151  0.0014  0.1339
    1W        W39337  17.600   6.385   0.190 -0.2433 -0.2524 -0.2963
    1W        W39338  13.275  27.937   7.128  0.3113 -0.4107 -0.0371
    1W        W39339  10.119   9.393   2.495 -0.3250  0.0049  0.3250
    1W        W39340  11.298  19.497   1.335 -0.0957 -0.0666 -0.0179
    1W        W39341  18.682  16.047   0.647 -0.1688 -0.0538  0.2664
    1W        W39342  16.970  10.873   8.520 -0.3964  0.1103 -0.0428
    1W        W39343  13.821  22.842   0.837  0.0033 -0.1320 -0.0616
    1W        W39344  10.564   3.212   3.034 -0.3544  0.0132  0.0884
    1W        W39345  21.443   9.623   7.957  0.0205 -0.0101 -0.0732
    1W        W39346  28.098  28.197   1.962  0.0320 -0.1008 -0.1623
    1W        W39347  17.904  18.972   6.520  0.1586 -0.1478  0.1150
    1W        W39348  28.804  24.702   8.524 -0.2591 -0.2448  0.2101
    1W        W39349   8.630  21.086   6.625 -0.1312  0.1566 -0.1459
    1W        W39350   1.210  20.967   1.808  0.0904  0.0211 -0.1265
    1W        W39351  29.335   7.442   8.019  0.1362 -0.1031 -0.2308
    1W        W39352   0.806  25.673   5.659 -0.0412  0.1557  0.0537
    1W        W39353  12.340  12.258   6.456  0.0371 -0.1467 -0.2150
    1W        W39354  16.355  28.310   7.656 -0.1085  0.3614  0.1444
    1W        W39355  28.937   1.841   7.960 -0.5113  0.0365  0.1533
    1W        W39356  13.671  11.977   2.213  0.1847  0.0014 -0.1973
    1W        W39357  22.480   9.491   1.116  0.1220 -0.2483  0.1398
    1W        W39358  17.752   0.030   7.655  0.5737  0.2128 -0.0275
    1W        W39359  27.430  15.161   7.054 -0.1565  0.0850 -0.2248
    1W        W39360   4.975  21.428   8.088 -0.0574 -0.0029  0.0400
    1W        W39361  14.366  14.443   8.152  0.0952  0.2048 -0.0242
    1W        W39362   8.872  21.365   0.307 -0.0791  0.1151  0.0976
    1W        W39363  25.412  29.302   8.974  0.1340  0.1249  0.0964
    1W        W39364  12.846   4.437   1.513  0.5523 -0.2526 -0.1205
    1W        W39365  12.461  29.661   8.222  0.3244 -0.1805  0.0038
    1W        W39366  15.244  14.975   7.622  0.2587 -0.0380 -0.3756
    1W        W39367  20.923   4.720   1.081 -0.1921  0.2211 -0.2719
    1W        W39368  25.199  25.096   2.684 -0.0611 -0.1594 -0.3831
    1W        W39369   9.131  26.313   7.092  0.3132  0.0461 -0.0735
    1W        W39370  26.696  21.394   9.296  0.3203 -0.0592 -0.2886
    1W        W39371  20.791  21.007   7.225  0.2323 -0.2092  0.1094
    1W        W39372  17.885   0.115   1.661  0.2613 -0.0910  0.0578
    1W        W39373   4.499  16.209   8.106  0.1867 -0.0305 -0.0772
    1W        W39374  24.833  18.516   7.858 -0.2220 -0.0969 -0.0109
    1W        W39375  14.659  20.192   7.647 -0.3016 -0.0385  0.4178
    1W        W39376  26.115  10.860   6.850  0.0284 -0.0721 -0.2233
    1W        W39377  10.619  21.752   7.775 -0.1122  0.0536 -0.3149
    1W        W39378  21.110   2.378   3.104 -0.0311  0.2736 -0.1520
    1W        W39379   9.463  16.365   2.279  0.2782 -0.2694  0.1385
    1W        W39380  13.609   8.375   1.337  0.1874  0.0604  0.0204
    1W        W39381   7.054  15.286   2.193 -0.2323  0.0546  0.0314
    1W        W39382  25.751  11.723   6.726  0.2100 -0.0784 -0.0092
    1W        W39383  24.578  28.477   1.730  0.3174 -0.0165 -0.1684
    1W        W39384   5.661  20.026   6.161  0.3423 -0.0517  0.0324
    1W        W39385  19.236  27.141   0.524  0.1836  0.0860 -0.0674
    1W        W39386  27.658  24.729   2.523 -0.1111  0.4608 -0.0474
    1W        W39387  11.233  26.568   0.002  0.0211 -0.2336 -0.0015
    1W        W39388  13.717  24.438   7.062 -0.1601  0.0202 -0.0371
    1W        W39389   0.666  15.152   2.880  0.0912 -0.1668  0.0580
    1W        W39390   3.348  24.945   0.062 -0.2677  0.2474 -0.1471
    1W        W39391   0.316  26.450   8.989  0.0838 -0.0584  0.1428
    1W        W39392  18.769  29.627   8.805  0.2374  0.2408 -0.1156
    1W        W39393  23.050   5.346   0.927 -0.0268 -0.0835 -0.4144
    1W        W39394   9.607   7.761   2.253 -0.1364 -0.3726  0.0203
    1W        W39395  20.538   8.930   0.418 -0.0839 -0.0552 -0.3223
    1W        W39396  12.489  19.191   8.044  0.1628  0.2243  0.1009
    1W        W39397   6.611  28.579   9.120  0.2857  0.0983 -0.2235
    1W        W39398   6.512  17.714   8.862 -0.0022 -0.0231  0.6147
    1W        W39399   9.187  22.294   7.345  0.0965 -0.1835 -0.1004
    1W        W39400   1.691   1.142   0.925 -0.1046  0.0381  0.0817
    1W        W39401  11.542  13.826   2.221 -0.1269 -0.2084  0.3256
    1W        W39402   7.154  15.958   2.151 -0.0864  0.1111  0.1814
    1W        W39403  20.550   7.077   3.265 -0.0960 -0.4571 -0.1194
    1W        W39404  28.142  24.596   7.365 -0.0218  0.0494 -0.1067
    1W        W39405   1.384  25.198   1.773 -0.0262  0.2366 -0.1310
    1W        W39406   4.909  27.517   7.862 -0.0094 -0.0406  0.1886
    1W        W39407   9.861  24.074   8.739  0.0479  0.0156  0.2748
    1W        W39408   6.963  25.778   7.831 -0.0843  0.0328 -0.1233
    1W        W39409   1.339   2.055   9.070 -0.0666  0.1544  0.3385
    1W        W39410  26.480  20.698   9.235  0.2927  0.2635  0.0405
    1W        W39411  25.749  29.036   8.604 -0.2155  0.1009  0.0231
    1W        W39412   9.198  17.518   1.356 -0.0429 -0.0350 -0.0033
    1W        W39413  28.668  12.632   0.233 -0.0768 -0.1338 -0.1307
    1W        W39414  16.324  15.463   6.547  0.1579 -0.1897 -0.1410
    1W        W39415   7.429   1.402   7.792 -0.2109  0.0230  0.0716
    1W        W39416  29.048  27.909   0.096  0.1731  0.1209 -0.0544
    1W        W39417  20.495   4.418   2.242  0.1024  0.3417  0.1350
    1W        W39418  13.532  29.086   7.048 -0.0447  0.3486 -0.1621
    1W        W39419   6.138   8.739   0.305  0.1741 -0.0498  0.0631
    1W        W39420  23.303  16.349   1.303  0.2458 -0.0243 -0.1936
    1W        W39421  27.480  24.462   6.728 -0.1605 -0.1516  0.1698
    1W        W39422  20.947  15.114   7.170  0.1565 -0.1633 -0.1970
    1W        W39423   5.371  20.949   7.050 -0.1274 -0.0414  0.0306
    1W        W39424  25.637  24.811   2.617 -0.1505  0.0680  0.2371
    1W        W39425   5.591  14.345   6.958  0.0663 -0.0199 -0.2875
    1W        W39426  11.767  10.225   0.561 -0.0145 -0.0938 -0.2104
    1W        W39427   5.907  19.869   1.181  0.3519 -0.1455 -0.0117
    1W        W39428  22.295  19.062   0.347 -0.0364 -0.3142  0.1490
    1W        W39429   3.320  10.841   6.939  0.2702  0.2643 -0.3821
    1W        W39430  24.481  14.623   0.209 -0.0530  0.1885  0.3324
    1W        W39431  10.481  13.116   2.455 -0.1293 -0.0800 -0.0987
    1W        W39432  19.146  28.616   2.593  0.0305  0.0744 -0.0104
    1W        W39433  19.876  13.328   2.308  0.1356  0.1157  0.0427
    1W        W39434   1.671  28.810   0.797 -0.1619 -0.2642 -0.0217
    1W        W39435  23.548  24.341   3.069 -0.2717 -0.2169 -0.0376
    1W        W39436  12.615   8.579   2.934  0.1079 -0.3714  0.4874
    1W        W39437   3.702   5.915   1.033 -0.0424 -0.0223  0.0297
    1W        W39438  10.834  28.864   1.033 -0.0654  0.0724  0.5354
    1W        W39439  19.462  14.503   7.279 -0.0379 -0.1965  0.0338
    1W        W39440   7.895  15.838   5.936 -0.0016  0.1334  0.0533
    1W        W39441  23.072   9.104   0.720 -0.2368  0.0534 -0.2329
    1W        W39442  14.366  22.056   6.590 -0.1095 -0.0013 -0.3935
    1W        W39443   3.368  17.745   1.640  0.0248 -0.0034  0.0473
    1W        W39444  12.709  10.104   9.348 -0.2251 -0.0455  0.1071
    1W        W39445  25.673  18.533   0.122  0.0923 -0.2242  0.0842
    1W        W39446  13.132  23.012   1.519  0.0655 -0.0052  0.1419
    1W        W39447  28.602  28.045   8.319 -0.1427 -0.2909 -0.1267
    1W        W39448  20.429  21.637   7.684  0.2515 -0.2247 -0.2286
    1W        W39449  11.051   4.164   2.275  0.2949 -0.3231 -0.0228
    1W        W39450  21.333   1.628   0.606 -0.0507  0.1098 -0.5208
    1W        W39451   3.017  16.349   9.195  0.2616  0.1661  0.0247
    1W        W39452   1.606   0.502   7.252  0.1778  0.1943 -0.3287
    1W        W39453   1.473   3.481   1.074  0.0281 -0.0265  0.2424
    1W        W39454  25.019   1.212   7.945  0.5169 -0.1036 -0.0388
    1W        W39455  18.268   8.758   0.283 -0.2040  0.2720  0.2221
    1W        W39456  26.501  10.411   8.599  0.1781 -0.0361  0.1242
    1W        W39457  17.361   4.765   8.542 -0.0116  0.0175  0.1134
    1W        W39458  23.716  28.862   1.439 -0.3678 -0.1723 -0.1973
    1W        W39459  22.646  29.723   6.956 -0.2553  0.1038  0.4329
    1W        W39460  16.658   7.716   2.712  0.1288 -0.1999  0.0061
    1W        W39461  24.110  10.717   8.071 -0.2024 -0.0343 -0.4334
    1W        W39462  27.503  21.056   1.647 -0.1752 -0.0813  0.1263
    1W        W39463  16.983   5.150   2.917 -0.1014  0.0501 -0.0067
    1W        W39464   6.792  21.557   8.613 -0.3169 -0.1847 -0.2166
    1W        W39465  29.421   5.807   2.062  0.2787  0.1780  0.1405
    1W        W39466   3.854  28.050   0.325 -0.1040  0.0355  0.0465
    1W        W39467  23.434  22.251   1.454 -0.0249  0.1923 -0.1671
    1W        W39468   7.370  14.926   0.555 -0.1291 -0.2288 -0.2850
    1W        W39469   3.182  15.137   8.919  0.2194 -0.2381 -0.1594
    1W        W39470  25.101  13.496   7.735 -0.1711  0.1503  0.1128
    1W        W39471  15.429  13.606   1.399 -0.1273 -0.0906  0.1561
    1W        W39472   0.941  14.860   0.987 -0.1615  0.1004  0.0307
    1W        W39473  25.309  18.463   7.658 -0.4217 -0.0739  0.2034
    1W        W39474  17.110  22.989   8.076  0.3104  0.1010  0.1867
    1W        W39475   0.872   1.167   7.445 -0.1388  0.2112  0.1118
    1W        W39476   1.543  20.841   9.193  0.0769  0.3604  0.2754
    1W        W39477  25.287   4.267   1.469 -0.0701  0.1704  0.3721
    1W        W39478   0.716   8.228   8.035 -0.0065  0.0257  0.2347
    1W        W39479  26.194  10.130   1.039 -0.3646  0.4635  0.1095
    1W        W39480   3.080  20.909   9.156 -0.0110  0.1576 -0.0298
    1W        W39481  23.449  22.117   2.677 -0.1371  0.2176 -0.4289
    1W        W39482   8.205  14.326   8.929  0.0177 -0.0436 -0.1637
    1W        W39483  25.885  13.438   1.218  0.0998  0.0012 -0.0423
    1W        W39484  25.013  27.251   8.781  0.3665  0.0116  0.0539
    1W        W39485  27.883  29.836   6.821 -0.1271  0.2429 -0.1284
    1W        W39486  23.676  24.358   0.068 -0.1749 -0.2078 -0.0712
    1W        W39487  17.805  12.459   2.443  0.3485 -0.1245 -0.0704
    1W        W39488   3.720  16.063   7.519  0.0873 -0.1555 -0.0510
    1W        W39489  28.933   9.585   0.345  0.2467 -0.2677 -0.2955
    1W        W39490  23.368  14.944   2.516 -0.2388  0.1497  0.0054
    1W        W39491  14.220  13.785   0.101 -0.2143 -0.1649  0.0514
    1W        W39492   5.504  23.950   0.932  0.2040  0.1660 -0.0823
    1W        W39493  14.633  23.108   8.049 -0.0219 -0.0889 -0.1161
    1W        W39494   9.846  14.138   1.999 -0.0435  0.0333 -0.0934
    1W        W39495  11.362  27.773   7.381  0.2165 -0.1500  0.0687
    1W        W39496  20.026   7.055   0.243  0.0058 -0.1492  0.0524
    1W        W39497  18.581  24.262   6.539 -0.1322 -0.0471 -0.2513
    1W        W39498  28.166   6.280   8.560  0.2611  0.1372 -0.1822
    1W        W39499  27.091  24.458   8.709 -0.2403  0.1038  0.0071
    1W        W39500  10.622  20.744   5.977 -0.0064  0.0954  0.0891
    1W        W39501   3.117   2.952   9.190  0.2032  0.1376 -0.0383
    1W        W39502  10.586  22.818   6.383  0.2127  0.0836 -0.0663
    1W        W39503  12.804   3.972   1.460  0.0461 -0.2701 -0.3172
    1W        W39504   4.618  26.774   6.539 -0.3954 -0.2873  0.0958
    1W        W39505  19.792   0.057   9.201 -0.2390  0.3077  0.0331
    1W        W39506   5.940   9.499   8.383 -0.3356 -0.1301  0.0395
    1W        W39507  24.349   6.444   8.214  0.0580 -0.0845 -0.1217
    1W        W39508   2.238   3.467   2.980  0.3934 -0.0191  0.3009
    1W        W39509  21.225   2.396   0.845 -0.0147 -0.0499  0.0351
    1W        W39510  11.441   5.380   1.342  0.1411 -0.0999 -0.0355
    1W        W39511  17.754   3.476   3.886  0.0193  0.2605 -0.0373
    1W        W39512  22.694   8.460   8.280 -0.2891  0.0461  0.1513
    1W        W39513  13.198  11.058   9.261  0.0487  0.0006 -0.4129
    1W        W39514  13.221  11.863   7.517  0.1535  0.1500  0.1581
    1W        W39515  25.321  16.688   1.593  0.1975 -0.1248 -0.2531
    1W        W39516   4.555   5.447   1.691 -0.0032 -0.2896 -0.0462
    1W        W39517  23.603  24.159   6.861 -0.1201 -0.0191  0.0338
    1W        W39518  17.053   0.158   0.567 -0.2756 -0.0823  0.2910
    1W        W39519  12.668   0.845   3.205 -0.2889  0.2423 -0.3244
    1W        W39520  14.297  18.618   1.972  0.0930  0.0787  0.0131
    1W        W39521  15.935  21.341   9.339  0.0428  0.2082  0.2279
    1W        W39522  23.258  26.676   1.069  0.0347 -0.1806 -0.1186
    1W        W39523  25.849   6.535   0.210  0.2412 -0.1875  0.0838
    1W        W39524   9.079  16.124   8.232 -0.0216  0.0688 -0.0183
    1W        W39525   3.998  12.424   7.677  0.1531 -0.1829 -0.0238
    1W        W39526  14.511  18.392   7.183 -0.0191 -0.1359  0.0225
    1W        W39527  11.956   3.022   8.541  0.3834 -0.2208 -0.0054
    1W        W39528  22.024  29.082   2.777  0.2099  0.0354 -0.1453
    1W        W39529  28.280   5.184   1.012 -0.0281 -0.1236 -0.0861
    1W        W39530   3.203   3.133   7.126  0.0241  0.0677  0.2799
    1W        W39531   9.380  19.670   1.832 -0.0779  0.0884  0.0552
    1W        W39532   2.097   9.906   8.810 -0.0210 -0.2284 -0.0999
    1W        W39533   4.234  17.286   2.535 -0.1839  0.2048 -0.0797
    1W        W39534  21.030  10.951   0.737 -0.0262 -0.1206 -0.0834
    1W        W39535  12.736   6.370   7.912 -0.2212  0.1454  0.0303
    1W        W39536  14.965  14.499   1.023  0.2149  0.0164  0.0801
    1W        W39537  29.516  25.848   0.887  0.1817 -0.0279  0.0404
    1W        W39538  11.119  17.102   7.045 -0.1898 -0.0035  0.0859
    1W        W39539  16.246  29.663   3.277  0.1958  0.1066 -0.1169
    1W        W39540  12.340   4.459   1.495 -0.0167  0.0931  0.0699
    1W        W39541  27.795  27.377   8.886  0.3297  0.2479  0.1099
    1W        W39542  20.432  24.299   1.438  0.2557 -0.0953  0.1310
    1W        W39543  14.063   7.683   8.413  0.0588  0.0585 -0.0355
    1W        W39544   0.069   7.958   7.437 -0.1151 -0.5286 -0.0104
    1W        W39545  16.754  21.196   9.110  0.1780 -0.1058  0.1301
    1W        W39546  26.031   7.935   0.237 -0.1893  0.0992  0.3160
    1W        W39547  22.661  19.707   8.638  0.2144 -0.0698  0.3434
    1W        W39548   3.671   1.974   1.862  0.2213 -0.0182 -0.0351
    1W        W39549  20.267  29.174   7.040 -0.0793  0.1775 -0.0348
    1W        W39550  18.348  22.071   0.000 -0.3732  0.1365 -0.0414
    1W        W39551  12.140  29.080   0.565  0.0376 -0.2175  0.1290
    1W        W39552  28.221   3.671   1.040  0.0560  0.1468 -0.1396
    1W        W39553  10.792   3.449   2.174  0.1477 -0.1168 -0.0894
    1W        W39554  22.944  15.544   0.307  0.3839 -0.1993 -0.0827
    1W        W39555  23.192  14.996   8.940  0.4449  0.0424  0.1290
    1W        W39556   8.393  17.957   6.053 -0.0955 -0.0388  0.0309
    1W        W39557  10.137  18.397   9.141  0.0763 -0.0770 -0.2231
    1W        W39558  11.157  23.592   0.122 -0.1780 -0.1483 -0.1486
    1W        W39559   1.273  15.946   7.712 -0.0851 -0.2059  0.0504
    1W        W39560  25.945  23.311   0.656 -0.2942 -0.1229 -0.2077
    1W        W39561  20.413  22.697   2.798  0.0011 -0.3671 -0.1283
    1W        W39562   8.619  12.093   8.378 -0.1187 -0.0913 -0.0687
    1W        W39563  15.110   4.030   8.975 -0.2321 -0.1083 -0.0590
    1W        W39564  10.601  14.531   0.403  0.2634 -0.1030  0.0120
    1W        W39565   5.217  12.393   7.433 -0.2990  0.2322  0.1010
    1W        W39566   0.286  23.934   8.825 -0.0096 -0.2897 -0.1080
    1W        W39567  28.342  28.320   7.667  0.1309  0.3297  0.1195
    1W        W39568   5.228  27.379   8.272 -0.2768 -0.0667 -0.1454
    1W        W39569  12.753  24.492   8.767  0.1085 -0.0847  0.2378
    1W        W39570   7.003  21.834   1.759  0.3267 -0.2443 -0.0929
    1W        W39571  26.343  18.180   9.036  0.0367 -0.1078  0.0914
    1W        W39572   0.726  12.316   7.995 -0.1206 -0.1089 -0.0688
    1W        W39573   7.062  14.711   2.272  0.2459  0.0719  0.0323
    1W        W39574  18.598  14.040   1.919 -0.4616  0.1012 -0.1124
    1W        W39575  24.886  23.287   7.569  0.0872 -0.3918 -0.2872
    1W        W39576   9.514   9.601   1.855 -0.2244  0.2933  0.1947
    1W        W39577  15.635  21.645   0.853  0.2693 -0.0137  0.2968
    1W        W39578  23.391  20.246   8.100 -0.2051 -0.4000  0.0571
    1W        W39579  10.359   8.369   2.688 -0.1673 -0.1977 -0.3129
    1W        W39580  14.047  19.176   8.898 -0.2408  0.0393  0.1800
    1W        W39581   8.388  20.449   7.113 -0.2423 -0.4563  0.1594
    1W        W39582  22.757  29.598   8.788  0.1624  0.0165 -0.2013
    1W        W39583  28.507   0.353   1.515  0.1385 -0.0724 -0.0846
    1W        W39584   6.235   6.958   3.080 -0.3298 -0.0039  0.0879
    1W        W39585   2.560  11.462   1.354  0.1285  0.2516  0.4266
    1W        W39586   2.603  22.180   8.114  0.0596  0.0579  0.1942
    1W        W39587  10.930  23.760   0.885  0.1790 -0.0101 -0.0613
    1W        W39588  22.641  27.333   9.377 -0.0236 -0.3132  0.2853
    1W        W39589   5.350  19.006   8.261 -0.1109  0.0764 -0.0051
    1W        W39590  12.832  20.151   8.935  0.1402 -0.0612 -0.1126
    1W        W39591  16.308  23.798   8.376  0.3205 -0.4057  0.1086
    1W        W39592  29.723  11.991   0.892 -0.3104 -0.2071  0.0677
    1W        W39593  29.690   3.392   7.435 -0.0374 -0.2356  0.2564
    1W        W39594   2.943  26.845   6.282  0.1452  0.2625  0.0657
    1W        W39595   2.828  28.345   5.874 -0.1097  0.3877  0.0391
    1W        W39596   4.230   2.174   8.784 -0.0277  0.1049  0.2153
    1W        W39597  29.293   9.995   1.461 -0.0858  0.1864  0.0363
    1W        W39598  26.978  28.693   8.108 -0.1305 -0.1629 -0.1827
    1W        W39599   1.906  23.547   5.749  0.1087  0.1449 -0.0416
    1W        W39600  13.248   1.069   0.088 -0.0307  0.0072 -0.2968
    1W        W39601   7.934  26.743   0.266 -0.0636 -0.0228  0.0209
    1W        W39602  28.742  16.897   0.896 -0.0666 -0.0985  0.0062
    1W        W39603  17.915  29.442   8.933  0.2021  0.0668 -0.1027
    1W        W39604  10.495  21.768   1.890 -0.0166 -0.0951  0.3719
    1W        W39605  16.045   0.383   1.542 -0.1143  0.0239  0.0083
    1W        W39606  23.455  28.499   0.482  0.2013 -0.0536 -0.1382
    1W        W39607  16.789  21.675   8.568 -0.1650  0.0576  0.0412
    1W        W39608   7.827   3.940   9.124 -0.2406 -0.0425 -0.0827
    1W        W39609  27.722  27.212   2.893  0.0496 -0.0139  0.0729
    1W        W39610  28.929  25.614   8.029  0.0267  0.0469 -0.0255
    1W        W39611  15.834  11.824   1.902 -0.1105 -0.2845  0.0894
    1W        W39612   8.996  20.801   1.561  0.0150 -0.1740 -0.0720
    1W        W39613  17.575   0.199   3.054  0.0603  0.3026 -0.0173
    1W        W39614  16.526  25.527   1.350  0.3801  0.4411 -0.0589
    1W        W39615  19.453  23.044   8.263 -0.1012 -0.2121 -0.2203
    1W        W39616  19.305  22.745   6.858  0.1372  0.1596  0.0740
    1W        W39617   1.194  21.639   0.944 -0.1032  0.0086  0.0735
    1W        W39618   4.197  25.901   9.489  0.2036 -0.2222  0.1877
    1W        W39619  15.989  23.565   5.903  0.0599  0.0012 -0.1013
    1W        W39620   8.093  24.064   8.086  0.3546 -0.0803 -0.2165
    1W        W39621  11.615  17.096   6.863  0.3026  0.1504 -0.2099
    1W        W39622   2.517  21.936   9.452 -0.1000  0.1377  0.1147
    1W        W39623  28.856   7.063   0.746  0.2857  0.1981  0.3390
    1W        W39624  27.865   1.427   1.729 -0.1091  0.0523 -0.0470
    1W        W39625  21.509  19.970   0.519  0.0595  0.2097  0.1194
    1W        W39626   3.634  19.294   8.899  0.1907  0.0873  0.1188
    1W        W39627   9.590   4.396   2.907  0.2651  0.2246  0.2503
    1W        W39628  20.239   2.947   3.189  0.1345 -0.0794 -0.0756
    1W        W39629  21.418   6.572   3.039  0.0185 -0.1671  0.0514
    1W        W39630  18.860  11.615   8.975 -0.2274 -0.1406  0.2922
    1W        W39631   2.482  18.002   7.264 -0.2016  0.3260  0.0402
    1W        W39632  13.018  27.289   7.126  0.2705 -0.2669  0.0300
    1W        W39633  15.726   2.673   4.420 -0.0969 -0.2667 -0.1239
    1W        W39634   0.528  18.082   8.526 -0.1619  0.0220  0.0800
    1W        W39635  14.517   6.936   0.115 -0.1637 -0.0942  0.0989
    1W        W39636  10.436  22.485   5.636 -0.1162 -0.0446 -0.2435
    1W        W39637  26.330  28.384   7.124 -0.0232  0.1093 -0.0624
    1W        W39638  18.746  11.609   8.454 -0.1737  0.0293 -0.1191
    1W        W39639  10.477  11.286   8.072 -0.0087  0.0258  0.2077
    1W        W39640  24.338  10.896   1.641 -0.0934  0.0450  0.1453
    1W        W39641  28.246  28.999   9.199 -0.0389 -0.0976  0.1159
    1W        W39642  23.898  28.567   3.709  0.1854  0.3018 -0.1642
    1W        W39643  20.067   0.248   8.354 -0.0903  0.1835 -0.1766
    1W        W39644  26.767   8.459   0.566 -0.1268  0.3523  0.1320
    1W        W39645  15.422   5.493   8.698 -0.0587  0.0958  0.0652
    1W        W39646  12.942   1.928   1.020  0.3707  0.1303 -0.0004
    1W        W39647  18.899   3.301   1.209 -0.2557  0.1650 -0.0354
    1W        W39648  29.809  17.710   6.642  0.1587  0.0339  0.0845
    1W        W39649   7.725  11.616   8.297  0.1010  0.0190 -0.3634
    1W        W39650  21.895   4.968   1.600  0.1880 -0.1373 -0.0395
    1W        W39651   2.847  12.226   2.481 -0.0321  0.0014 -0.0921
    1W        W39652  10.780  21.830   0.580 -0.0859 -0.0042  0.0921
    1W        W39653  21.121  27.904   0.817  0.1743  0.0135  0.1557
    1W        W39654   7.752  23.884   7.145  0.0060  0.1100  0.0389
    1W        W39655   4.311  21.569   6.594 -0.0636 -0.1557 -0.0115
    1W        W39656  17.385   2.640   0.719 -0.0383 -0.3136 -0.1023
    1W        W39657  27.205   6.995   7.145  0.0274  0.2412 -0.0739
    1W        W39658  23.831  24.613   7.063  0.3440  0.0019 -0.2783
    1W        W39659  19.889  27.768   0.358  0.1148 -0.1505 -0.0789
    1W        W39660  18.119  19.003   0.675  0.0325  0.3229  0.3848
    1W        W39661  28.201  12.343   0.168  0.1101  0.0454  0.0552
    1W        W39662  29.762  18.263   1.814 -0.0292 -0.0853 -0.3599
    1W        W39663  16.430  20.642   6.296 -0.2622 -0.2126  0.0761
    1W        W39664   2.190   6.188   3.244 -0.0135 -0.0944 -0.0137
    1W        W39665  11.267  26.495   1.957  0.2343 -0.0078 -0.0489
    1W        W39666   0.209  23.044   7.218 -0.2396 -0.0346 -0.2520
    1W        W39667  25.562  23.530   0.342 -0.0295  0.2595 -0.0639
    1W        W39668  29.682   4.589   6.705  0.1918 -0.1083  0.4451
    1W        W39669   3.750   3.476   7.430 -0.0351  0.1051 -0.1781
    1W        W39670   1.022   7.323   1.791 -0.2478 -0.0022 -0.1480
    1W        W39671  11.478   5.580   2.057 -0.2755 -0.1204  0.0966
    1W        W39672  27.340  14.581   8.259  0.0066  0.2662  0.1226
    1W        W39673  13.817  10.673   7.459  0.0277  0.3438 -0.0688
    1W        W39674   7.811  22.450   6.718  0.1883 -0.0023  0.1882
    1W        W39675  20.108  24.043   5.931  0.2456  0.0334  0.0449
    1W        W39676  10.924   7.153   8.221  0.0517 -0.0350  0.0123
    1W        W39677   6.542  22.527   6.675 -0.1297 -0.0539 -0.0851
    1W        W39678   2.253   8.687   2.715  0.4898 -0.1033  0.2756
    1W        W39679  15.795  21.126   0.817 -0.3726 -0.0648 -0.2095
    1W        W39680   8.661   3.261   9.099 -0.0236  0.1762  0.1034
    1W        W39681  18.974  17.491   0.119  0.0456 -0.0091  0.0477
    1W        W39682   9.608   7.747   0.329  0.0381  0.2552 -0.3023
    1W        W39683  23.190  19.499   9.274 -0.2688 -0.0293 -0.2094
    1W        W39684   9.119   4.071   8.170  0.0271 -0.1259 -0.1117
    1W        W39685  28.488  29.060   2.104  0.1223  0.0463  0.1708
    1W        W39686  28.272  27.310   8.571  0.0670 -0.2463 -0.0898
    1W        W39687  22.809   9.126   0.247  0.1832  0.2688  0.0430
    1W        W39688  16.421   2.553   9.138  0.1666 -0.0355 -0.0029
    1W        W39689   8.609  23.305   7.391 -0.3833 -0.3728  0.0011
    1W        W39690  21.522  29.355   1.453  0.3070  0.0135 -0.1451
    1W        W39691  28.881  25.091   0.449 -0.0506 -0.1090 -0.0798
    1W        W39692  12.506  28.694   7.640  0.5453  0.0179 -0.2415
    1W        W39693   1.218  28.378   7.016  0.1586 -0.2739  0.1374
    1W        W39694   8.136   7.291   7.502  0.0272 -0.0358 -0.2201
    1W        W39695  11.620   8.947   8.499  0.1551  0.1216  0.0994
    1W        W39696  21.300  21.116   7.277  0.1308 -0.2683 -0.0044
    1W        W39697   3.437  27.022   0.582  0.1347 -0.0543  0.1571
    1W        W39698  12.340  25.198   8.442 -0.2611 -0.1097  0.1285
    1W        W39699  11.350   2.320   8.338  0.1683 -0.1260  0.0386
    1W        W39700   0.290  17.703   6.216 -0.0803  0.0729 -0.0645
    1W        W39701  25.287  17.161   1.806  0.0152  0.0557 -0.1948
    1W        W39702  18.449   2.068   9.107  0.0012 -0.0052  0.0847
    1W        W39703  14.577  16.763   1.061  0.0384 -0.0974 -0.1787
    1W        W39704  23.048  24.697   2.024  0.3094 -0.1052 -0.0402
    1W        W39705  20.537  23.293   0.304 -0.1805 -0.1431  0.1782
    1W        W39706  20.386  25.796   6.606  0.3762 -0.1723  0.5027
    1W        W39707  25.489   5.956   2.613 -0.0656 -0.0819 -0.0193
    1W        W39708  19.275  22.742   7.396 -0.1070  0.2390  0.1037
    1W        W39709   1.731   3.598   1.654 -0.4564 -0.0434 -0.1179
    1W        W39710  14.066  12.945   7.196 -0.1851 -0.4013 -0.2560
    1W        W39711  14.174  21.240   5.502 -0.2986 -0.4185  0.1369
    1W        W39712   7.533  18.547   7.055  0.1000  0.2424 -0.1197
    1W        W39713  22.327  14.014   0.963  0.1943  0.1999 -0.2609
    1W        W39714  19.761   2.739   0.114  0.1395 -0.0841  0.3250
    1W        W39715   6.661  18.667   6.237  0.0423  0.0890  0.0280
    1W        W39716  14.479   5.407   1.556 -0.0715 -0.1391 -0.1450
    1W        W39717   7.165  17.384   2.467 -0.1123  0.0759 -0.1654
    1W        W39718  23.940  20.500   8.162 -0.0442  0.0561 -0.0231
    1W        W39719   2.532   7.337   7.394 -0.2963  0.0519  0.0880
    1W        W39720  20.543  17.899   8.626  0.1314 -0.1150 -0.1411
    1W        W39721  20.667  17.921   9.126  0.0464  0.1948 -0.0355
    1W        W39722  28.603  28.013   2.135  0.1474  0.0934  0.0047
    1W        W39723  27.083  20.171   7.897 -0.1696  0.0422 -0.0828
    1W        W39724  11.103   8.870   9.092  0.2860 -0.1147 -0.0660
    1W        W39725   4.107  23.988   9.075  0.4045 -0.0846  0.2997
    1W        W39726  27.401   8.974   7.403 -0.0969 -0.2559 -0.1223
    1W        W39727  18.266  14.734   1.085 -0.2881 -0.1114 -0.3916
    1W        W39728  20.981   3.614   0.104 -0.1030 -0.2340 -0.2007
    1W        W39729  21.672  28.301   8.566 -0.2675 -0.2996 -0.0889
    1W        W39730  18.201  25.520   2.165 -0.0002 -0.0862 -0.0101
    1W        W39731  19.764  21.761   0.193 -0.1325  0.0047 -0.5514
    1W        W39732   5.267   3.079   6.498  0.0801 -0.0237 -0.0245
    1W        W39733  22.976   8.653   9.447 -0.2131  0.2443 -0.2099
    1W        W39734  23.203   8.238   7.043  0.1673  0.0527 -0.0047
    1W        W39735   4.687  17.166   2.319  0.0031 -0.2928 -0.0744
    1W        W39736  12.228  11.374   7.972  0.0493  0.0768  0.1620
    1W        W39737  20.615   7.591   3.522 -0.0332  0.0675  0.2522
    1W        W39738  20.444  28.331   1.548 -0.1028  0.1471 -0.1530
    1W        W39739   4.351   1.406   9.155  0.1231 -0.0268 -0.0341
    1W        W39740   5.394  25.066   0.624 -0.0123  0.0344 -0.2432
    1W        W39741  12.256  11.958   1.239 -0.0757 -0.1937  0.2002
    1W        W39742  11.051  19.119   0.467  0.3390  0.3173 -0.3004
    1W        W39743   7.404  19.286   1.625  0.1217 -0.0596 -0.0126
    1W        W39744  27.818  26.971   9.119 -0.3392  0.1073  0.0192
    1W        W39745  17.191  12.635   0.272 -0.0777 -0.0468 -0.1684
    1W        W39746  14.596   3.772   9.063 -0.4715  0.0246 -0.0937
    1W        W39747   6.015   7.124   7.244 -0.0946  0.1970  0.3063
    1W        W39748   2.030  18.919   1.934  0.0487 -0.2143 -0.2952
    1W        W39749  18.608  27.132   6.457 -0.0715  0.3787  0.1005
    1W        W39750  24.993   5.627   8.553 -0.0115 -0.0929  0.1085
    1W        W39751  10.192  19.058   7.300 -0.3005 -0.3811 -0.1697
    1W        W39752  17.785  10.683   9.069  0.1814  0.1213 -0.0690
    1W        W39753   7.052  15.341   9.033 -0.0819 -0.1074 -0.0659
    1W        W39754  16.723  22.036   6.686 -0.1539 -0.1780  0.0889
    1W        W39755  27.891   0.216   1.676  0.0386 -0.0440 -0.0315
    1W        W39756  10.777  13.630   1.858 -0.3096 -0.0007  0.0330
    1W        W39757  12.497   8.081   1.967  0.2959  0.0388  0.1721
    1W        W39758  24.222  24.931   6.958 -0.0463  0.0518 -0.2959
    1W        W39759  26.394  13.356   1.148  0.0115 -0.1557  0.1516
    1W        W39760   2.138  27.215   5.624  0.0431 -0.0620 -0.2209
    1W        W39761  20.749  15.107   1.618 -0.1137 -0.0175  0.1562
    1W        W39762  28.459   2.187   7.257 -0.1454  0.0763  0.4024
    1W        W39763  23.572  29.670   2.112  0.2540  0.1302 -0.0068
    1W        W39764  22.622  26.018   0.709  0.2216  0.1611  0.3269
    1W        W39765  29.346  26.799   1.108  0.0471 -0.3047  0.1419
    1W        W39766   9.023   4.084   0.695  0.1971  0.2589  0.2070
    1W        W39767   9.387  14.249   1.245  0.1908  0.1961  0.0581
    1W        W39768  12.100  18.960   7.700  0.0688  0.1100  0.0056
    1W        W39769  16.112   7.028   2.711  0.1034  0.0046 -0.4354
    1W        W39770  10.590   2.654   0.762  0.2716  0.0659  0.0720
    1W        W39771   0.340  13.935   1.869  0.0428 -0.4703 -0.1274
    1W        W39772   7.325  27.524   8.097 -0.0996  0.0444 -0.0748
    1W        W39773  27.866   0.257   1.147  0.1192  0.2997  0.0102
    1W        W39774   1.378  15.418   2.082  0.1453  0.3347 -0.0019
    1W        W39775  21.377  17.110   7.224  0.1505 -0.0940 -0.4226
    1W        W39776  10.919   6.834   9.101  0.1550  0.2129  0.1966
    1W        W39777  27.672  16.292   8.204  0.2311 -0.3956  0.0317
    1W        W39778  14.852  11.554   1.858 -0.0290 -0.1839 -0.2046
    1W        W39779  11.421  23.155   0.909 -0.2378  0.0094 -0.0892
    1W        W39780  13.105  24.827   8.147 -0.1069 -0.1297 -0.1194
    1W        W39781  27.152   7.061   8.639 -0.0623  0.2023 -0.2041
    1W        W39782  23.227  21.150   8.437 -0.0097  0.2594 -0.0889
    1W        W39783  15.749  16.363   2.602  0.0896  0.1294  0.1755
    1W        W39784  19.851  12.416   1.190 -0.3663 -0.2836  0.1620
    1W        W39785   2.029   3.142   9.062  0.1280 -0.2863  0.0089
    1W        W39786   1.561  28.632   7.783  0.0560  0.0493 -0.1054
    1W        W39787   6.298  15.928   8.696 -0.3012  0.3375 -0.3325
    1W        W39788   2.530  14.147   1.787  0.0546 -0.5382  0.1762
    1W        W39789  24.406  18.009   6.189 -0.0283  0.2644  0.0649
    1W        W39790   9.939  11.533   9.289 -0.2977 -0.2993 -0.6136
    1W        W39791   8.623   4.274   7.296  0.2654 -0.0938  0.1173
    1W        W39792   2.281  12.599   8.154  0.0718  0.0868 -0.2228
    1W        W39793  22.944   1.208   0.423 -0.4621  0.0550 -0.0096
    1W        W39794   0.922   1.483   7.896 -0.1329  0.1776  0.2915
    1W        W39795  10.145   5.779   2.526 -0.0457  0.0151 -0.2617
    1W        W39796   7.031  26.755   7.299 -0.2406  0.0132  0.1609
    1W        W39797  27.721  20.742   7.221 -0.1192 -0.1836  0.1062
    1W        W39798  26.328  12.295   8.121 -0.1641  0.0138  0.0234
    1W        W39799  12.631  20.198   1.571  0.1671  0.0258  0.1200
    1W        W39800  14.434   7.927   8.184 -0.0284 -0.0125  0.2844
    1W        W39801  10.297  22.438   0.496 -0.1379 -0.1029  0.1015
    1W        W39802  20.932  27.777   0.286  0.0038 -0.2394 -0.0011
    1W        W39803  10.609  23.483   8.914 -0.0611 -0.3692  0.2029
    1W        W39804  10.108   5.513   8.958  0.1124  0.0187  0.0871
    1W        W39805  12.719   6.635   1.183 -0.2249 -0.1255  0.1711
    1W        W39806  23.129  16.063   8.083 -0.1650 -0.0830 -0.2489
    1W        W39807  12.696   3.724   8.599  0.0192 -0.0216 -0.0285
    1W        W39808  14.766   4.164   9.336 -0.3508 -0.0350  0.0927
    1W        W39809  17.079  17.949   6.094  0.0544  0.1341  0.1776
    1W        W39810   1.761   9.047   9.465 -0.1291 -0.0402  0.1994
    1W        W39811   6.145  23.099   8.472 -0.0497  0.1427  0.2497
    1W        W39812   8.845   1.815   0.834  0.0529  0.0866  0.0784
    1W        W39813   9.091  12.889   7.813  0.0196  0.0471  0.3314
    1W        W39814  15.165  23.208   1.929  0.0124  0.0727  0.2856
    1W        W39815   4.872  17.707   8.375 -0.3177  0.0428  0.2477
    1W        W39816   0.237  19.512   6.704 -0.0345  0.2189 -0.0982
    1W        W39817   7.658  20.522   6.578  0.1972 -0.2124 -0.0186
    1W        W39818   0.669  18.214   2.276 -0.0914  0.2369 -0.0097
    1W        W39819   2.793   8.879   8.904  0.1543  0.2246 -0.3053
    1W        W39820  14.703   5.074   1.854  0.0023  0.0157  0.0290
    1W        W39821  14.084   0.470   0.151 -0.1628  0.0282 -0.2241
    1W        W39822   0.927  16.365   7.670  0.0110 -0.2566  0.2957
    1W        W39823  18.276  10.354   7.801  0.1626  0.2183  0.0366
    1W        W39824   8.463  13.018   0.205 -0.0087 -0.2600 -0.5244
    1W        W39825  24.272  15.864   7.970  0.2830  0.0681 -0.2610
    1W        W39826  23.843  13.812   0.690  0.0774 -0.1550 -0.0908
    1W        W39827  12.594  19.734   2.446  0.1112 -0.1790 -0.2406
    1W        W39828  22.006  18.641   0.571 -0.3587  0.0641  0.1485
    1W        W39829  20.232   5.139   0.276 -0.1325  0.0756  0.5096
    1W        W39830   3.429   7.035   1.561  0.0813  0.2309 -0.0462
    1W        W39831  23.884  13.651   8.160  0.1965  0.4268  0.0104
    1W        W39832  23.849  19.586   1.115 -0.0498 -0.3687 -0.0159
    1W        W39833  28.211  10.339   6.806  0.2214 -0.1261  0.1462
    1W        W39834  20.191  23.259   6.818 -0.1711  0.0492  0.0321
    1W        W39835  11.462   0.047   7.171 -0.2449 -0.0109  0.0594
    1W        W39836  23.811  20.499   0.420  0.0533  0.1660  0.3334
    1W        W39837  17.091  12.410   0.795 -0.2944  0.1114 -0.1682
    1W        W39838  23.118   8.645   0.407  0.0040 -0.1095 -0.1693
    1W        W39839  14.660   9.656   0.331  0.0216 -0.1120 -0.0204
    1W        W39840  26.385   4.784   2.158 -0.0096  0.2673  0.3372
    1W        W39841  24.360  25.160   2.203  0.4164  0.1478  0.1373
    1W        W39842  12.999  26.764   1.532 -0.1190 -0.1976  0.3729
    1W        W39843  19.367  12.456   2.195 -0.0820 -0.1054 -0.3097
    1W        W39844  25.832   6.310   1.328  0.0554 -0.1225 -0.1583
    1W        W39845   0.199  20.831   8.420 -0.0186 -0.0460 -0.1643
    1W        W39846   2.659  27.799   7.019 -0.0223 -0.3297  0.0844
    1W        W39847  21.611  20.142   6.929  0.2629 -0.0347  0.1859
    1W        W39848   3.203  11.962   7.918  0.0895 -0.0517  0.0146
    1W        W39849  20.119   4.310   7.814 -0.1767 -0.2627  0.0065
    1W        W39850  21.726   7.104   2.944 -0.1426 -0.0059  0.0643
    1W        W39851  11.360  21.447   7.114 -0.1431 -0.3487 -0.0534
    1W        W39852   1.090  10.822   6.406  0.4284  0.0059  0.1737
    1W        W39853   8.366  15.422   7.566  0.1215  0.1342  0.1459
    1W        W39854  26.977  10.787   8.037  0.0779  0.0653 -0.2469
    1W        W39855   5.826   5.383   2.516  0.0765  0.0419 -0.5013
    1W        W39856  15.230  29.192   6.879  0.0424 -0.0359  0.0576
    1W        W39857   3.464  13.139   9.070 -0.1353  0.1525 -0.0905
    1W        W39858   4.504   8.907   0.245  0.1477 -0.1954 -0.2664
    1W        W39859   6.582   2.193   1.483  0.0407  0.2638  0.2365
    1W        W39860  24.804  25.312   0.732 -0.1693  0.0756  0.0043
    1W        W39861   0.481   6.306   1.854  0.2999 -0.1611  0.0577
    1W        W39862  20.523  17.879   1.569 -0.1841  0.4201  0.0212
    1W        W39863  20.965  23.482   0.450 -0.1964  0.4317  0.1617
    1W        W39864  21.851  21.667   0.915 -0.2110  0.0106  0.0260
    1W        W39865  15.917   8.822   8.199 -0.0917  0.1661 -0.5708
    1W        W39866  17.250   9.787   2.446  0.0585  0.0573  0.0498
    1W        W39867   0.170  18.161   2.241 -0.0722  0.2741 -0.0412
    1W        W39868  22.925   9.703   7.370 -0.3202 -0.2190 -0.0996
    1W        W39869  25.746  10.236   0.865  0.0947  0.2905 -0.1538
    1W        W39870  26.888   4.680   0.947  0.0124 -0.2218 -0.0958
    1W        W39871  12.898  19.751   2.044  0.1000 -0.1142  0.3787
    1W        W39872  26.413  16.236   8.510 -0.1087  0.1828 -0.0941
    1W        W39873  16.005  13.638   8.453 -0.0647 -0.0722  0.4826
    1W        W39874  17.684  22.080   0.928  0.0051 -0.3399 -0.0118
    1W        W39875  15.862   4.258   0.104  0.0053  0.0744  0.3560
    1W        W39876   6.991   3.199   8.281  0.1019 -0.0752  0.3897
    1W        W39877  25.959  10.115   7.458 -0.2110  0.0102  0.1264
    1W        W39878  25.618  10.498   8.522  0.1299 -0.0077  0.1873
    1W        W39879   5.154   2.407   9.398  0.1305 -0.2080 -0.2354
    1W        W39880  10.878  19.588   0.471 -0.0110  0.0817  0.1580
    1W        W39881   7.480  14.949   6.612 -0.0685 -0.0248  0.1027
    1W        W39882   8.321   0.879   7.930  0.1883 -0.0663  0.1155
    1W        W39883  13.693  10.377   9.431  0.2112  0.2286  0.1161
    1W        W39884   3.207  25.074   1.855 -0.3978  0.0503 -0.0167
    1W        W39885   0.635  16.804   0.531 -0.0747  0.2226  0.0914
    1W        W39886  25.017   6.019   0.841 -0.0466 -0.0459  0.0629
    1W        W39887   1.388   5.282   1.964  0.2494  0.0985 -0.1856
    1W        W39888  12.113  23.692   5.616 -0.2082 -0.2269  0.1345
    1W        W39889   8.611  19.267   2.087 -0.1356 -0.2995 -0.1062
    1W        W39890  28.566  20.957   8.218 -0.0245 -0.0920 -0.0194
    1W        W39891  12.815   2.507   8.535  0.2171  0.2668  0.0548
    1W        W39892  18.963  27.618   0.034  0.0315 -0.2366 -0.1270
    1W        W39893   0.948  11.841   8.098 -0.1519 -0.0029 -0.2803
    1W        W39894  24.109   5.613   2.546  0.2371  0.0296 -0.0245
    1W        W39895   8.740   6.446   1.450 -0.1048 -0.1390 -0.1666
    1W        W39896  25.004  20.410   0.783 -0.0001 -0.0373 -0.2032
    1W        W39897   4.834  26.403   1.535  0.1661 -0.1140  0.4455
    1W        W39898   4.688  11.626   9.379 -0.1168  0.1577  0.1373
    1W        W39899  16.189  20.388   1.204  0.4250  0.1381  0.4908
    1W        W39900  19.155   2.752   8.444 -0.1546  0.1707  0.0253
    1W        W39901  11.619  28.448   8.506  0.3532  0.2218 -0.1483
    1W        W39902  26.353  28.192   0.211 -0.1389  0.1396  0.2067
    1W        W39903  24.706   5.997   0.481  0.0652 -0.0319  0.0305
    1W        W39904   2.221  15.950   7.608  0.2729  0.2331  0.0125
    1W        W39905   1.703  18.220   9.031 -0.0465 -0.1110  0.0025
    1W        W39906   9.879   5.009   8.872  0.0003  0.0950 -0.1211
    1W        W39907  13.206   3.913   0.757  0.0559  0.1888  0.0992
    1W        W39908  13.534   7.977   9.127  0.1888 -0.0105  0.3464
    1W        W39909  27.046  29.085   1.651 -0.0333 -0.0763  0.1007
    1W        W39910   2.827  17.651   9.351  0.0760 -0.0857  0.2752
    1W        W39911  10.454  11.830   6.861 -0.0341 -0.0713 -0.1063
    1W        W39912  23.197   9.953   0.219 -0.0937  0.1226  0.0350
    1W        W39913   6.935  22.186   9.326 -0.1306  0.0704 -0.1887
    1W        W39914  18.227  28.981   1.262 -0.1388  0.2555  0.1011
    1W        W39915   0.851  22.774   8.031 -0.0732  0.0577 -0.1398
    1W        W39916   5.783  20.251   7.438 -0.1908  0.2766  0.3819
    1W        W39917   6.731  19.683   8.233  0.0548  0.3059  0.0301
    1W        W39918  27.533  18.733   8.663 -0.0040 -0.1229  0.0576
    1W        W39919   6.030  19.434   7.168  0.1365  0.0271 -0.0482
    1W        W39920  29.020  20.035   1.803  0.0722 -0.1228 -0.3689
    1W        W39921  22.202  18.646   0.088  0.1087 -0.1045  0.1562
    1W        W39922   3.670  16.048   8.441 -0.1362  0.1727 -0.1407
    1W        W39923   4.485  14.486   8.985 -0.0047 -0.0772  0.2752
    1W        W39924  11.486   5.202   0.533 -0.0878  0.4427  0.0622
    1W        W39925  16.491  26.382   1.608  0.1323  0.1949  0.2248
    1W        W39926   4.390   0.726   7.693 -0.2634  0.0085  0.4112
    1W        W39927  11.172  25.009   7.618 -0.1994 -0.2039  0.0380
    1W        W39928  20.446   8.895   0.968  0.0919  0.0085  0.0114
    1W        W39929  13.003  14.742   1.585  0.1611 -0.0355 -0.1539
    1W        W39930  10.164  25.542   6.647  0.0496 -0.0380  0.1765
    1W        W39931  17.625  22.773   8.849 -0.2756 -0.0961 -0.1442
    1W        W39932  24.018  29.258   1.391  0.1501 -0.1342 -0.1585
    1W        W39933  10.524  18.057   1.373  0.1198  0.2550 -0.4361
    1W        W39934  13.459   3.196   7.627 -0.0481  0.2051 -0.1085
    1W        W39935  17.168  19.390   7.394 -0.3895  0.4957  0.0035
    1W        W39936  17.981   2.449   3.566 -0.2435  0.3593  0.1463
    1W        W39937  10.617  25.623   8.660 -0.1268  0.3156  0.0207
    1W        W39938  18.881  16.543   8.820 -0.0014  0.2576 -0.2206
    1W        W39939  21.771   6.146   9.223 -0.1016 -0.0088  0.0874
    1W        W39940   7.525   3.291   1.652  0.0820 -0.0334  0.1419
    1W        W39941   1.425  20.688   8.662 -0.2925 -0.1369 -0.3988
    1W        W39942  23.314   2.342   1.236 -0.1876 -0.1820 -0.1673
    1W        W39943  22.045  12.614   1.287 -0.2626  0.0962 -0.2119
    1W        W39944   4.822   3.690   9.282  0.3519 -0.2084  0.3524
    1W        W39945   1.323   3.617   8.970  0.1112 -0.1609 -0.2215
    1W        W39946  18.300  20.845   7.208 -0.0190  0.2030  0.1489
    1W        W39947   1.385  19.035   7.937  0.2092 -0.0558  0.0888
    1W        W39948  19.012  20.109   1.707  0.2660 -0.0766  0.1166
    1W        W39949  22.077  21.127   6.760  0.3136  0.3130 -0.1022
    1W        W39950  25.355  10.118   1.498 -0.2282 -0.0890 -0.1355
    1W        W39951  19.741   9.398   2.199 -0.2883 -0.0662  0.1810
    1W        W39952  29.335  28.039   6.370  0.1649  0.0386 -0.0327
    1W        W39953  28.644  22.004   3.405 -0.0341  0.1597  0.0229
    1W        W39954  21.361   5.929   9.451  0.3266  0.0826 -0.1205
    1W        W39955  11.119   2.077   7.975 -0.0570 -0.0953 -0.1233
    1W        W39956   6.856  26.937   5.776  0.1164 -0.0039  0.1949
    1W        W39957   9.493   4.274   0.858 -0.3782 -0.1675  0.1242
    1W        W39958  17.435  17.599   8.190  0.1003 -0.2277 -0.2086
    1W        W39959  20.996  17.204   6.875  0.0199 -0.1256  0.1616
    1W        W39960  29.068  26.293   1.699 -0.1900 -0.2263  0.0808
    1W        W39961   8.117  29.024   1.676  0.3508  0.0967  0.1151
    1W        W39962   3.585  26.572   7.399  0.1401 -0.0516  0.0140
    1W        W39963  22.162   6.943   3.206  0.2025  0.1112  0.2792
    1W        W39964  15.929  12.673   9.469  0.2810  0.1079 -0.1619
    1W        W39965  14.122  12.163   6.948 -0.2404 -0.2646 -0.2093
    1W        W39966   4.015  18.736   6.947  0.2229 -0.1257  0.0284
    1W        W39967  14.334   0.808   2.927 -0.3276  0.1962 -0.1638
    1W        W39968  12.802  17.382   7.070 -0.1331 -0.0825 -0.1607
    1W        W39969  14.450  11.781   1.432 -0.3006 -0.0347  0.1146
    1W        W39970  11.944   2.404   2.077 -0.2300  0.0014  0.3145
    1W        W39971  15.462   7.863   7.109  0.0388 -0.1880  0.0284
    1W        W39972  11.091  18.430   7.043  0.0109  0.2016 -0.1173
    1W        W39973   0.666  25.189   8.475  0.0329 -0.3271 -0.2358
    1W        W39974  12.149  26.408   0.326 -0.1130  0.0451 -0.2437
    1W        W39975  10.688   4.716   9.337  0.1275 -0.1721 -0.0856
    1W        W39976  13.065   1.199   8.211 -0.0704 -0.0479  0.1422
    1W        W39977  29.678  20.252   2.351  0.1293 -0.0598  0.0963
    1W        W39978  17.624  12.408   9.061  0.2923  0.1063 -0.0201
    1W        W39979  20.030   2.328   9.248  0.2249  0.1728 -0.1661
    1W        W39980  12.367  29.624   3.545 -0.0276  0.1360 -0.0301
    1W        W39981   8.388  26.378   7.739  0.1445  0.0134  0.3083
    1W        W39982   0.509   9.258   2.070 -0.0880 -0.0328  0.1651
    1W        W39983  12.713  15.592   7.207 -0.1515  0.1851  0.3341
    1W        W39984   5.544   9.276   8.175  0.2000  0.1843  0.0176
    1W        W39985   9.909   7.792   1.419  0.1175  0.4023 -0.1195
    1W        W39986   2.060  18.257   7.355 -0.0161  0.2003  0.1445
    1W        W39987  26.034  12.744   1.627  0.1682 -0.0072 -0.2196
    1W        W39988  18.723   7.638   1.219  0.0208  0.0426 -0.0379
    1W        W39989   9.670   0.498   2.435 -0.0123  0.0411  0.0149
    1W        W39990  17.316   0.011   9.021 -0.0788  0.2559 -0.2103
    1W        W39991  10.402   3.789   1.196 -0.1023 -0.0656  0.0239
    1W        W39992  19.803  25.663   1.408  0.0376  0.0294  0.2246
    1W        W39993  28.371  26.603   8.240  0.1217 -0.4335 -0.0095
    1W        W39994  27.617   9.797   8.740 -0.3438 -0.0151 -0.5159
    1W        W39995  12.060  10.150   8.284  0.1784 -0.1078  0.1149
    1W        W39996  18.427  19.566   7.908 -0.1944 -0.1215  0.0089
    1W        W39997  12.230  14.278   6.752  0.1013  0.0862 -0.0020
    1W        W39998  29.138  28.738   7.786  0.0861  0.0563  0.2525
    1W        W39999  19.279  18.087   1.544  0.3493  0.0910  0.1123
    1W        W40000  29.739  11.181   6.417  0.1751 -0.1988  0.0067
    1W        W40001   1.476   4.322   9.391  0.0069 -0.1612 -0.4594
    1W        W40002  16.125  28.624   8.678  0.1435  0.0360  0.1357
    1W        W40003   2.706   7.413   6.272 -0.1803 -0.3149 -0.1670
    1W        W40004  18.062  14.102   7.030  0.1870  0.2433  0.1060
    1W        W40005  12.742  22.468   0.591  0.0135  0.0752 -0.0012
    1W        W40006   7.510  29.775   1.766  0.0950  0.3258 -0.1729
    1W        W40007  21.175  10.247   3.053 -0.0649 -0.2605  0.2133
    1W        W40008   1.183   3.033   8.367 -0.0852  0.2197  0.4791
    1W        W40009  17.368   4.733   1.133  0.2052 -0.1425 -0.0793
    1W        W40010   4.256   6.709   2.645 -0.0660 -0.0381  0.0505
    1W        W40011  21.016   4.305   0.543 -0.1700  0.1060  0.3960
    1W        W40012   9.292  24.366   1.472  0.0693  0.0911  0.0237
    1W        W40013  17.217  19.893   8.716 -0.1092  0.2294 -0.0576
    1W        W40014   1.045   4.018   2.771 -0.1930 -0.0088  0.1525
    1W        W40015  25.118  15.227   6.999 -0.0433 -0.0369  0.1655
    1W        W40016   1.548  14.630   2.405  0.1414 -0.1868  0.1363
    1W        W40017   7.278  22.651   1.374  0.0545 -0.1381 -0.0258
    1W        W40018   9.200   6.741   7.480  0.2101  0.2451 -0.0493
    1W        W40019  28.061  20.887   9.421  0.0436  0.0638  0.1070
    1W        W40020  22.792  21.794   8.322  0.2031 -0.0365  0.0869
    1W        W40021  11.420  21.697   6.016  0.0375 -0.0002  0.4755
    1W        W40022  15.854  10.744   7.779  0.1407  0.3255  0.1792
    1W        W40023  11.376  19.933   8.526 -0.1400 -0.0384  0.1695
    1W        W40024  12.284   8.905   7.604  0.0267 -0.0549 -0.2943
    1W        W40025  11.624  20.325   6.736 -0.1038 -0.1697  0.1965
    1W        W40026   9.935  21.460   9.020 -0.0571  0.0788 -0.0752
    1W        W40027  16.499  14.480   0.570 -0.1051 -0.2746  0.1866
    1W        W40028  27.508   4.248   1.913  0.0089 -0.1954  0.1961
    1W        W40029  18.570  13.505   2.145  0.1535 -0.1748  0.1377
    1W        W40030   4.575  23.374   1.543  0.2904 -0.0770  0.2126
    1W        W40031   1.167  23.932   7.312  0.0654  0.0850  0.0005
    1W        W40032   9.468   2.548   7.187 -0.0954  0.2337  0.2097
    1W        W40033   7.875   2.656   8.209  0.1482  0.1462 -0.3071
    1W        W40034   8.910   5.502   2.713  0.1598  0.1247  0.0414
    1W        W40035  13.166  22.823   6.861  0.1541 -0.1586 -0.0268
    1W        W40036  12.287  16.818   0.889 -0.2227 -0.3418  0.0119
    1W        W40037   2.876   4.021   8.438 -0.2308  0.0591  0.0384
    1W        W40038  12.189  29.102   1.056  0.4145 -0.0964  0.1535
    1W        W40039  20.943  24.160   1.738 -0.1015 -0.4101  0.0233
    1W        W40040   1.968   1.164   0.457  0.1506  0.0201  0.1231
    1W        W40041   8.423  22.170   0.257 -0.3533  0.0120  0.2358
    1W        W40042  22.755   8.668   0.755 -0.0351 -0.0414  0.0476
    1W        W40043  17.874  28.541   7.126 -0.0444 -0.0583  0.3761
    1W        W40044  19.568   2.594   7.653  0.1064  0.2053 -0.0986
    1W        W40045   5.698  27.975   1.847  0.4832 -0.1949 -0.3609
    1W        W40046  24.532   1.216   2.606 -0.0733 -0.3942  0.1681
    1W        W40047  13.813  20.534   0.451 -0.1059 -0.4305 -0.0950
    1W        W40048  21.010  28.804   2.018  0.0937  0.3023 -0.0446
    1W        W40049  21.472  19.260   8.320 -0.1522  0.0252  0.3272
    1W        W40050  26.858   8.655   1.556 -0.4076  0.0130  0.1911
    1W        W40051   9.208  16.780   9.254  0.0318 -0.1670 -0.1637
    1W        W40052  14.900   9.219   8.787  0.0999  0.1326  0.0889
    1W        W40053  23.754  23.545   1.209 -0.0363  0.1261  0.0737
    1W        W40054  14.484   0.055   0.179 -0.0341 -0.0803 -0.0391
    1W        W40055  28.394   0.517   7.201  0.2560 -0.2499 -0.1922
    1W        W40056   2.671  23.471   2.478  0.0335  0.0865 -0.0672
    1W        W40057  13.868   0.504   1.346  0.2545 -0.1713 -0.1163
    1W        W40058   8.031  12.880   8.702 -0.2238 -0.1281  0.0425
    1W        W40059  27.210  21.274   0.255  0.0246 -0.0790  0.0929
    1W        W40060   4.274  22.967   2.255  0.0591  0.0320 -0.1512
    1W        W40061  10.152   0.061   9.363  0.2062  0.0944  0.0611
    1W        W40062  15.326   3.970   1.862 -0.1939  0.0045  0.0141
    1W        W40063   4.702  21.809   6.395  0.0754 -0.0292  0.0189
    1W        W40064  22.235  29.102   8.632 -0.1293  0.1671 -0.2083
    1W        W40065  27.387  15.277   0.682 -0.2758 -0.0643 -0.1438
    1W        W40066  27.757   7.040   7.752 -0.1422  0.0984 -0.2877
    1W        W40067  15.096  16.880   6.079  0.4482 -0.2246  0.0329
    1W        W40068   5.772   7.218   6.823  0.2041 -0.2418 -0.1984
    1W        W40069   9.555  25.663   8.911  0.1529 -0.4928 -0.3526
    1W        W40070  29.509  27.264   8.923 -0.0555 -0.0261 -0.1851
    1W        W40071  13.079  27.591   8.484  0.2697  0.0755  0.0356
    1W        W40072   8.515  11.678   8.701 -0.0186 -0.3813  0.0928
    1W        W40073  11.747  23.070   0.566 -0.1336 -0.0383 -0.1893
    1W        W40074  24.865  26.002   8.396  0.1307  0.4048  0.2775
    1W        W40075  20.953   3.231   2.672 -0.1090  0.1779  0.3060
    1W        W40076  17.197  27.512   9.171  0.0066 -0.0569 -0.1399
    1W        W40077  19.728  25.654   0.890  0.0153  0.1256 -0.0486
    1W        W40078  21.059   8.077   2.416  0.0891 -0.1189  0.5646
    1W        W40079  20.708   1.088   0.605  0.0785 -0.1494 -0.1332
    1W        W40080  12.199  10.667   8.404  0.1781 -0.1940  0.1940
    1W        W40081  28.126  20.014   7.983  0.1119  0.1213  0.0162
    1W        W40082   5.449   6.401   0.010 -0.0420 -0.0534 -0.1027
    1W        W40083  10.433  24.529   0.127 -0.1816 -0.0350  0.0489
    1W        W40084  16.388  18.262   1.044  0.1231 -0.0385  0.3126
    1W        W40085   7.327  13.320   7.877  0.0093 -0.0952 -0.0953
    1W        W40086  18.261  19.145   8.443 -0.0673 -0.0698  0.2185
    1W        W40087  22.311   0.406   7.770  0.0412  0.2154  0.2151
    1W        W40088   8.603  20.980   9.000  0.2896 -0.2093 -0.0190
    1W        W40089  24.938  25.801   7.098 -0.0767  0.0874  0.0212
    1W        W40090  25.599  21.787   8.920 -0.1893 -0.1476  0.0488
    1W        W40091  28.898   8.993   0.240 -0.1259 -0.0361  0.0559
    1W        W40092  15.593  15.039   1.047  0.3210 -0.2118 -0.0887
    1W        W40093   4.652   6.789   6.317  0.4929 -0.0694  0.0536
    1W        W40094  26.451  15.008   0.453  0.1932  0.2613 -0.0329
    1W        W40095   5.575   8.599   1.900 -0.1610 -0.2765 -0.2398
    1W        W40096   7.935   6.455   7.010 -0.0170  0.0756  0.0095
    1W        W40097   0.223   2.104   2.152 -0.0128 -0.1054  0.1313
    1W        W40098  20.423  14.333   0.511  0.1360  0.2323  0.0305
    1W        W40099  13.714  15.315   1.137  0.0039  0.2258 -0.2195
    1W        W40100   7.186  23.198   9.342  0.1152 -0.0552 -0.1709
    1W        W40101  19.581  24.285   0.872 -0.1501  0.1158  0.0080
    1W        W40102  14.679   7.108   9.113  0.0599  0.3461  0.0142
    1W        W40103   1.601   3.180   0.252 -0.0399  0.1111  0.1100
    1W        W40104   2.926  24.241   0.489 -0.0071  0.0984 -0.1837
    1W        W40105   1.291   2.784   0.082  0.1172  0.1714 -0.4436
    1W        W40106  22.317   3.782   0.656  0.1954 -0.2068  0.0619
    1W        W40107  24.771   3.074   7.798 -0.2579  0.2535 -0.0966
    1W        W40108   8.342   3.529   0.212  0.0680 -0.1280  0.1571
    1W        W40109  20.750  16.069   0.719 -0.4507 -0.2253 -0.1190
    1W        W40110   8.903   7.828   1.708  0.1353 -0.2517  0.1474
    1W        W40111  25.483   8.718   9.040  0.1369 -0.1903 -0.1794
    1W        W40112  15.738   2.557   2.066 -0.2592  0.1401 -0.1026
    1W        W40113  29.192  17.382   5.742 -0.2162 -0.0675 -0.3251
    1W        W40114   1.930  28.314   0.637 -0.1323 -0.0964 -0.1719
    1W        W40115   8.672   3.055   3.160 -0.1964  0.1592 -0.0537
    1W        W40116   6.735   7.932   2.278 -0.0062 -0.0997  0.3167
    1W        W40117  14.681  28.070   0.902  0.3807 -0.2575  0.0962
    1W        W40118  15.032  17.451   5.784 -0.1744  0.4133  0.1946
    1W        W40119  15.556  21.928   9.429 -0.1329 -0.1719 -0.0794
    1W        W40120  10.786   2.794   3.966 -0.1731  0.1701 -0.0683
    1W        W40121   8.812   5.148   9.355 -0.0112 -0.1548  0.0228
    1W        W40122  26.170   4.355   1.362  0.1831  0.0767 -0.0071
    1W        W40123  27.967  27.637   6.431  0.2949 -0.2654  0.2457
    1W        W40124  24.161   9.001   8.959 -0.0078  0.1247 -0.0995
    1W        W40125  25.541   4.441   7.643  0.1679 -0.1124 -0.0069
    1W        W40126   5.359  16.006   2.458  0.1118  0.2832 -0.0673
    1W        W40127   4.659   2.883   7.250 -0.0645 -0.2488 -0.0999
    1W        W40128  15.234  23.435   8.516  0.0861 -0.1979  0.2163
    1W        W40129  17.302  10.251   2.811  0.0089 -0.1778  0.0155
    1W        W40130  29.447  10.539   6.782 -0.1560 -0.0380 -0.1058
    1W        W40131  29.355  25.769   7.742 -0.1376  0.1447 -0.1034
    1W        W40132  10.154   0.013   2.557  0.1006  0.0497 -0.0783
    1W        W40133  15.846  18.826   1.469  0.1235 -0.3085 -0.2980
    1W        W40134   5.260  17.528   9.046 -0.0226 -0.1981 -0.0189
    1W        W40135   2.582  19.015   9.315 -0.1501  0.0606  0.0935
    1W        W40136  24.656  21.306   1.145 -0.0322 -0.0664  0.0945
    1W        W40137   4.352  12.214   7.308 -0.0512  0.0603 -0.0508
    1W        W40138  14.364  26.764   9.368 -0.2740  0.0372  0.2150
    1W        W40139  16.701   2.332   8.348  0.1479 -0.0155  0.0223
    1W        W40140  17.368  27.989   2.426  0.5051  0.1268  0.1431
    1W        W40141   8.801   1.002   3.005 -0.1977  0.0114  0.4075
    1W        W40142  28.895   1.608   1.440 -0.1677  0.0719 -0.2354
    1W        W40143   6.619   3.847   0.988 -0.2378 -0.2625  0.0488
    1W        W40144  18.473  22.880   7.328  0.0559  0.3426 -0.0854
    1W        W40145   4.636  16.940   1.194  0.0724  0.0661 -0.2123
    1W        W40146  19.221  26.760   1.409  0.1007 -0.0849 -0.2599
    1W        W40147  19.577  29.414   0.671  0.1275 -0.4616 -0.0113
    1W        W40148  11.379   1.074   1.585 -0.1740  0.0885 -0.0202
    1W        W40149   5.812  26.189   6.870  0.0152 -0.0998 -0.2033
    1W        W40150   1.126   3.179   0.501  0.1937 -0.1534 -0.0867
    1W        W40151  23.911  23.515   3.232 -0.1520  0.0610 -0.1599
    1W        W40152   7.771  25.443   5.941 -0.0230 -0.2278  0.0555
    1W        W40153  13.319  24.890   1.497 -0.2161 -0.1305 -0.0590
    1W        W40154  28.021  18.576   2.475 -0.1874 -0.0758 -0.0406
    1W        W40155  16.369   0.382   7.911  0.0074 -0.0023 -0.0459
    1W        W40156  11.985  17.364   8.982  0.0244  0.2262 -0.1524
    1W        W40157  12.485  25.021   0.232  0.1316  0.0968 -0.2582
    1W        W40158   8.929  26.599   8.390  0.0337 -0.0937  0.2134
    1W        W40159   4.548  21.161   0.338 -0.0004 -0.0602  0.0981
    1W        W40160  19.437  28.921   2.350 -0.0727  0.2225  0.2395
    1W        W40161  14.284  10.329   9.354 -0.0854 -0.0565 -0.0030
    1W        W40162   1.250  15.933   0.185  0.1741  0.4498 -0.1173
    1W        W40163  16.537  11.977   0.368  0.0378  0.0603 -0.0255
    1W        W40164  14.195   3.170   2.915  0.0116  0.1234 -0.0650
    1W        W40165   8.288  12.873   6.582  0.2925 -0.2997 -0.0251
    1W        W40166   4.484  12.448   1.639  0.0709 -0.3651  0.1277
    1W        W40167  10.946  22.568   7.449 -0.2748  0.0172  0.1452
    1W        W40168  27.049   9.033   8.621  0.0087 -0.0784 -0.0620
    1W        W40169   8.919   7.107   0.676  0.2400  0.4580  0.0543
    1W        W40170  12.466  17.698   6.285  0.1270 -0.1414 -0.0162
    1W        W40171   4.289  17.036   8.805 -0.2479 -0.1777  0.0674
    1W        W40172  20.134  18.689   8.025  0.0723  0.0425 -0.0448
    1W        W40173   2.747  23.525   8.500 -0.0439 -0.2261  0.0972
    1W        W40174  18.614  27.929   9.431  0.3171 -0.0586  0.0826
    1W        W40175   3.897   8.649   0.789  0.1047 -0.1325 -0.1854
    1W        W40176  29.637  28.896   1.818  0.2940 -0.0039  0.2388
    1W        W40177  18.606   0.064   2.359 -0.2290  0.1222  0.0124
    1W        W40178  26.389   2.355   7.159  0.1749 -0.2393 -0.0923
    1W        W40179   2.809  22.859   8.800  0.2317 -0.2448 -0.0539
    1W        W40180   4.624  22.802   6.241 -0.0754  0.0474 -0.0963
    1W        W40181  16.065   9.578   8.121 -0.2464 -0.0445  0.2007
    1W        W40182  29.086   3.205   9.099 -0.1504 -0.1900 -0.1362
    1W        W40183  25.354  22.503   2.007 -0.2766 -0.1912 -0.1147
    1W        W40184  11.223  20.682   6.564 -0.0517 -0.1193 -0.1340
    1W        W40185  29.022  13.725   2.607  0.2577 -0.2275  0.1786
    1W        W40186  22.084  21.449   3.200  0.2014  0.0018 -0.0988
    1W        W40187  21.594  24.384   9.298 -0.0144  0.0411 -0.2246
    1W        W40188  23.710   1.245   8.317  0.1291  0.0093 -0.0208
    1W        W40189   4.416  23.844   9.411 -0.0615 -0.2453  0.0526
    1W        W40190  14.166  17.354   8.237 -0.1358  0.4047 -0.0294
    1W        W40191  22.147  29.846   0.803 -0.0162 -0.0001 -0.0608
    1W        W40192  20.351   3.925   2.947  0.2416  0.1359 -0.1397
    1W        W40193  10.251   9.154   9.381  0.0159 -0.0408  0.0164
    1W        W40194  17.004  27.114   2.136 -0.0133  0.1237 -0.3820
    1W        W40195  29.757  15.076   2.133 -0.2958 -0.1893 -0.1025
    1W        W40196  19.154   0.258   2.554  0.2530  0.3345 -0.5153
    1W        W40197  14.538  16.169   1.965 -0.0223 -0.0101  0.0094
    1W        W40198  13.146  18.111   6.549 -0.1598 -0.3737 -0.0237
    1W        W40199   5.719  10.036   7.675 -0.0456  0.0850  0.0267
    1W        W40200  10.323   8.830   7.470  0.1110  0.1341 -0.2388
    1W        W40201  11.299  13.419   6.377 -0.0164  0.0067  0.1055
    1W        W40202   8.154  25.653   7.735 -0.2193  0.1680  0.0227
    1W        W40203  28.088   1.052   9.248  0.1227 -0.3277  0.1290
    1W        W40204   7.073   6.900   2.553 -0.2651 -0.2467  0.2365
    1W        W40205  11.874  14.316   8.120 -0.1491 -0.2362 -0.1393
    1W        W40206  16.581  23.144   0.420  0.0357  0.1479  0.2378
    1W        W40207  11.384   1.083   8.433 -0.3090  0.1386  0.0446
    1W        W40208  21.016  20.064   0.972  0.0944  0.0653  0.2635
    1W        W40209   2.399   7.935   9.325 -0.0039  0.1635  0.0030
    1W        W40210  29.575  12.680   9.129  0.3766  0.0196  0.1220
    1W        W40211  12.297  18.712   9.439 -0.0512 -0.1388  0.3124
    1W        W40212   9.630   9.060   0.272  0.3867  0.0956 -0.2348
    1W        W40213  11.689   9.338   8.122  0.0897 -0.2513  0.3426
    1W        W40214  26.394  23.994   3.118 -0.0012  0.0173 -0.0393
    1W        W40215  16.725   3.368   9.164  0.1331  0.1001  0.0075
    1W        W40216  21.593   5.945   0.400  0.0035 -0.1865  0.1433
    1W        W40217   1.215  29.310   1.630  0.3674 -0.2139  0.4079
    1W        W40218  23.426   6.019   2.191  0.0822  0.2875  0.0393
    1W        W40219  21.288  23.188   7.224 -0.3053  0.1689 -0.1447
    1W        W40220  23.366   3.608   8.074  0.1148  0.1848 -0.1261
    1W        W40221   5.944  13.772   7.748  0.0656  0.0143  0.2469
    1W        W40222   7.582  14.766   8.842  0.0114 -0.2977 -0.0166
    1W        W40223  19.703  14.685   9.492  0.2351  0.0153 -0.0910
    1W        W40224   1.394  26.742   2.050  0.2732 -0.0456  0.2315
    1W        W40225  23.796   0.717   8.396 -0.0819  0.0583  0.1870
    1W        W40226   5.176  13.866   2.041  0.1859  0.2154 -0.5944
    1W        W40227  15.269  16.646   6.692 -0.2591 -0.2155  0.1579
    1W        W40228   2.536  12.981   1.872 -0.2349 -0.1388  0.0315
    1W        W40229  12.128   5.971   1.113 -0.0815 -0.5233  0.1486
    1W        W40230   9.202   2.557   8.012 -0.0440 -0.1588 -0.1193
    1W        W40231   8.237  28.768   8.494 -0.3351 -0.1464  0.0262
    1W        W40232  23.361  22.434   7.650  0.0938  0.1806  0.0340
    1W        W40233  17.988  19.804   1.236 -0.0291 -0.3250 -0.0861
    1W        W40234   0.937   6.320   1.565 -0.1929 -0.2017  0.0340
    1W        W40235  26.810  19.326   6.950  0.1549  0.0187  0.0906
    1W        W40236  23.708  29.340   9.062 -0.0805 -0.1518 -0.1800
    1W        W40237   8.102  27.404   1.171  0.1698 -0.0589  0.1835
    1W        W40238   9.748  12.536   0.811 -0.0931 -0.0937 -0.0415
    1W        W40239   6.479  22.978   6.547 -0.1117  0.0165 -0.0943
    1W        W40240  13.026  24.591   1.754 -0.2398 -0.0825 -0.0741
    1W        W40241  20.337   3.231   1.664  0.2901  0.0396  0.3641
    1W        W40242  10.396   9.049   0.345  0.1868 -0.0687  0.2462
    1W        W40243  11.454  12.536   1.114 -0.0942  0.1224 -0.1661
    1W        W40244  15.367  23.080   6.188 -0.1904  0.0517 -0.0728
    1W        W40245  24.327  14.925   8.026 -0.2855 -0.0578 -0.1058
    1W        W40246  15.528   7.944   8.443 -0.2075 -0.0974 -0.0483
    1W        W40247  14.668  10.086   7.801  0.0241  0.3183 -0.2624
    1W        W40248   3.680  14.169   0.329  0.1148 -0.2168  0.0275
    1W        W40249   0.415   8.789   1.875 -0.1441  0.3223  0.1564
    1W        W40250  16.204  20.709   0.807 -0.0254 -0.0901  0.0298
    1W        W40251  18.377   2.421   3.179 -0.1315 -0.0465 -0.1990
    1W        W40252   3.272  23.059   7.038 -0.0134  0.0743 -0.0669
    1W        W40253  17.291  13.971   2.405  0.0771  0.1095 -0.0059
    1W        W40254   4.500   0.870   8.147 -0.1977 -0.5676  0.3591
    1W        W40255  23.658   5.050   8.835  0.0780 -0.1492 -0.1584
    1W        W40256  18.483  26.114   7.801  0.0470 -0.0479  0.2649
    1W        W40257  29.814  19.479   7.920 -0.0043  0.1671 -0.0723
    1W        W40258  28.680  20.588   2.016  0.0434 -0.2470  0.0708
    1W        W40259  28.463  22.950   7.979  0.1956 -0.1100 -0.2356
    1W        W40260  27.486  22.845   0.095  0.3475  0.0168 -0.3360
    1W        W40261  15.857  24.907   6.680 -0.2970  0.0768 -0.0762
    1W        W40262  21.859  20.822   1.466  0.0997  0.1283  0.2151
    1W        W40263  19.827  27.273   2.155 -0.2863 -0.3138 -0.0615
    1W        W40264   8.959  16.579   8.801  0.3270  0.0562  0.0703
    1W        W40265  20.446  17.370   7.887  0.3621  0.0756  0.3183
    1W        W40266  11.080   6.345   2.294  0.0386  0.0222  0.3694
    1W        W40267   3.820   4.084   0.203 -0.0483 -0.0032  0.3249
    1W        W40268   5.232   8.555   8.622  0.2124 -0.0058 -0.4530
    1W        W40269   1.917  21.999   6.402 -0.2819  0.0430 -0.2460
    1W        W40270   2.691  29.647   0.685  0.0560  0.1468  0.1791
    1W        W40271  24.184   3.863   1.188  0.4058  0.0451  0.3320
    1W        W40272  22.485  28.742   8.145 -0.3063  0.1176  0.1600
    1W        W40273  10.054  24.963   5.608  0.0291  0.1452  0.0823
    1W        W40274  26.770  12.435   2.176 -0.0892  0.0855 -0.0600
    1W        W40275   1.774  13.369   1.443  0.1630  0.0208  0.0037
    1W        W40276  18.593  11.412   0.317 -0.2559  0.1328  0.0228
    1W        W40277  27.305  23.234   2.404  0.0318 -0.1109 -0.1411
    1W        W40278   2.936  24.737   9.377 -0.0333 -0.1945 -0.0727
    1W        W40279  12.972  13.944   1.322 -0.0893 -0.0311 -0.1396
    1W        W40280  10.688  17.398   8.234  0.2432 -0.0746  0.2236
    1W        W40281  23.971   2.234   1.299 -0.0102  0.1026  0.1340
    1W        W40282   1.020  12.292   8.972 -0.2348  0.2300 -0.2319
    1W        W40283   7.373   0.612   3.179  0.2112 -0.1513 -0.0455
    1W        W40284  21.786  21.085   9.159 -0.1670  0.0373 -0.0476
    1W        W40285  18.243  16.761   6.681  0.0792  0.0826 -0.0296
    1W        W40286  12.071  24.710   6.286  0.0609 -0.1641  0.1321
    1W        W40287  27.489   2.668   0.225  0.0704 -0.2302  0.1799
    1W        W40288   2.009  22.582   1.027 -0.1312 -0.0182 -0.0346
    1W        W40289  17.032  29.585   9.366  0.1270  0.0020  0.0229
    1W        W40290  22.192  14.067   1.415 -0.0278 -0.0063  0.0583
    1W        W40291  20.216  26.221   9.422 -0.3677  0.2432 -0.1264
    1W        W40292  19.291  15.041   1.950  0.0100 -0.0118  0.1137
    1W        W40293  17.324  18.168   7.658  0.2829 -0.0174  0.0833
    1W        W40294   2.846  17.765   1.628 -0.1257 -0.2839  0.0572
    1W        W40295  20.673  20.116   6.054 -0.1628 -0.3151 -0.3054
    1W        W40296  24.853  14.419   6.823  0.1797  0.3447 -0.0373
    1W        W40297  14.080  14.711   0.754  0.2591  0.2189  0.1889
    1W        W40298   4.575   8.205   7.856 -0.0836  0.1480  0.2853
    1W        W40299  16.783  20.106   7.454  0.2887 -0.0293 -0.0475
    1W        W40300   0.686  17.817   8.896  0.0951 -0.0922  0.0719
    1W        W40301   2.583  13.475   9.397 -0.1744 -0.3105  0.0966
    1W        W40302  24.075  24.446   8.145  0.0717  0.0417 -0.2677
    1W        W40303   7.225  16.425   6.427  0.1064 -0.1330 -0.1329
    1W        W40304  18.325   4.541   3.587 -0.2491  0.1855 -0.1429
    1W        W40305  12.589   6.241   8.365 -0.1235 -0.5010  0.1120
    1W        W40306   9.614   1.588   9.171  0.0382  0.0163  0.2109
    1W        W40307  21.686  14.184   1.277 -0.1541 -0.0421 -0.1995
    1W        W40308   1.979   0.923   8.307  0.1774 -0.0353  0.2937
    1W        W40309  23.265   2.017   2.986  0.0135 -0.1972 -0.0565
    1W        W40310   3.696  12.322   7.218 -0.1211  0.1409 -0.2551
    1W        W40311   1.359  14.773   1.224  0.0052  0.4765  0.2222
    1W        W40312  13.609  18.341   1.071  0.0934  0.1900  0.2325
    1W        W40313  29.404  22.366   1.041  0.5631  0.1041  0.1409
    1W        W40314   2.422  19.735   7.013  0.1533 -0.1320  0.0192
    1W        W40315  26.614  24.032   6.469  0.1548  0.0974  0.0071
    1W        W40316   3.607  19.949   2.210 -0.0067  0.1117  0.3436
    1W        W40317  10.587  27.673   6.484  0.1434 -0.3783  0.0488
    1W        W40318  22.909  15.682   1.863 -0.1616  0.1298 -0.0490
    1W        W40319  21.503   9.458   0.320  0.0478  0.2171  0.2461
    1W        W40320  11.609  12.954   0.526 -0.1429  0.1843  0.0643
    1W        W40321  27.067  22.740   0.401 -0.0870 -0.0717 -0.0986
    1W        W40322  22.406  22.663   2.085 -0.2315  0.1385 -0.0073
    1W        W40323   1.773  17.253   8.313  0.0307 -0.2510 -0.0450
    1W        W40324  12.528  15.586   1.869  0.1181 -0.0029 -0.0281
    1W        W40325  16.471  17.992   1.462  0.0074 -0.2556 -0.2189
    1W        W40326   1.201   3.363   9.491  0.1752  0.2356  0.0784
    1W        W40327  14.662   8.354   1.260  0.2111 -0.2065 -0.2456
    1W        W40328   3.487  24.011   8.284 -0.0213 -0.2101  0.2871
    1W        W40329  11.671  26.357   0.806  0.0489  0.0149  0.0403
    1W        W40330  24.114   6.420   8.666  0.3111 -0.1244  0.2904
    1W        W40331  27.165   0.058   1.110  0.0944 -0.2577 -0.0776
    1W        W40332   4.345   9.952   7.877 -0.1940  0.0318  0.3681
    1W        W40333   3.297  27.312   0.211 -0.0369 -0.3144  0.0154
    1W        W40334   8.028   7.217   9.168  0.1364 -0.0796  0.4169
    1W        W40335  12.470  23.340   5.760 -0.1946 -0.2786  0.1163
    1W        W40336  29.361   5.851   8.189  0.0766 -0.1926  0.2614
    1W        W40337  12.557  24.446   0.283  0.0121  0.1836 -0.1017
    1W        W40338  16.416  15.429   8.794  0.0861  0.3010 -0.0801
    1W        W40339  20.092  17.339   0.776 -0.0289 -0.0835  0.0629
    1W        W40340  25.942  25.346   1.061  0.4086 -0.1453 -0.0867
    1W        W40341  14.493   5.620   2.050 -0.0523  0.2310 -0.1262
    1W        W40342  26.719   9.511   8.017  0.2140  0.0430 -0.1410
    1W        W40343   4.838  16.592   8.691  0.2639  0.2083 -0.1688
    1W        W40344  20.775  25.544   0.870  0.3130 -0.2140  0.1913
    1W        W40345   9.280  25.310   1.382  0.0182  0.0608 -0.4470
    1W        W40346  13.477  28.368   7.197  0.2120 -0.2775 -0.3446
    1W        W40347  26.274  20.108   2.461 -0.3327 -0.2269  0.2133
    1W        W40348  18.473  16.842   1.147  0.1183  0.0128  0.0633
    1W        W40349   9.933  15.435   7.522  0.2508  0.0238  0.3178
    1W        W40350   4.940  11.386   8.546  0.0293 -0.2085  0.1413
    1W        W40351   7.866   8.973   3.303  0.0830 -0.2932  0.3251
    1W        W40352  29.710  15.976   0.679 -0.0549  0.3208 -0.0102
    1W        W40353  20.633  17.412   8.524 -0.2505 -0.2731 -0.0922
    1W        W40354   7.367  22.275   1.039  0.4069 -0.1412 -0.0371
    1W        W40355   5.159   7.950   9.032  0.0057 -0.2009  0.1876
    1W        W40356  27.562  22.871   6.182  0.0801 -0.1004  0.3231
    1W        W40357   1.673  18.768   7.698 -0.2614 -0.2595 -0.1354
    1W        W40358  22.708  19.237   0.608  0.4252 -0.0888 -0.0977
    1W        W40359   3.205   3.033   6.522  0.4630  0.1364  0.3956
    1W        W40360   0.213  21.595   0.333  0.0610 -0.2284  0.0567
    1W        W40361  13.066  22.983   8.632  0.0417 -0.1485 -0.1197
    1W        W40362   6.351  22.571   5.678 -0.1293 -0.2440 -0.0151
    1W        W40363  10.428   2.318   9.306 -0.3402  0.0129 -0.0530
    1W        W40364   9.627  14.500   8.965 -0.1492  0.0709  0.1019
    1W        W40365  10.191  22.709   8.723  0.1142 -0.0390 -0.0825
    1W        W40366   9.083   1.950   8.530 -0.1625  0.0857 -0.2294
    1W        W40367  22.164   9.404   2.495 -0.2025 -0.1576  0.0948
    1W        W40368   6.203  20.139   9.426 -0.1451  0.0748 -0.0688
    1W        W40369   6.040   3.340   8.057  0.0255 -0.0303  0.2735
    1W        W40370  14.361  22.004   6.114  0.0199 -0.0326 -0.4210
    1W        W40371  23.004   7.228   1.994  0.0415  0.0049 -0.0237
    1W        W40372  18.644   9.029   8.584 -0.0988  0.1261  0.0074
    1W        W40373  24.295   9.590   8.832  0.1051 -0.2196 -0.1248
    1W        W40374   8.121   2.255   9.015  0.0023 -0.0067  0.0335
    1W        W40375  28.317  26.966   0.586 -0.0622 -0.3111  0.0986
    1W        W40376   6.797   2.656   1.556  0.0117 -0.2742 -0.1580
    1W        W40377  22.814   6.195   3.066  0.2124 -0.0197  0.2450
    1W        W40378  15.153   0.708   1.502 -0.1077 -0.1736 -0.2182
    1W        W40379   8.506  21.755   6.290  0.4532  0.1633 -0.1293
    1W        W40380  24.485  25.633   7.329 -0.3674  0.1929 -0.0113
    1W        W40381  22.966  13.206   1.400  0.0042  0.0132  0.2013
    1W        W40382  19.083  21.389   1.057 -0.1139 -0.1529 -0.2171
    1W        W40383  20.444   9.547   9.069 -0.0765  0.0023 -0.2342
    1W        W40384  20.444  20.566   0.235  0.2168  0.1710 -0.1669
    1W        W40385   4.804  14.713   8.302  0.2918 -0.1838  0.1388
    1W        W40386   7.275   2.679   1.138 -0.0237  0.2287 -0.0916
    1W        W40387   8.446  12.330   7.396 -0.0410 -0.2096  0.0806
    1W        W40388   5.244   6.090   2.478 -0.4103  0.0217  0.1835
    1W        W40389  22.671  20.512   6.799  0.1812 -0.2105 -0.2371
    1W        W40390   7.774   5.333   7.577 -0.0850 -0.0661 -0.0208
    1W        W40391  22.763   1.697   8.721  0.2612  0.1274 -0.3037
    1W        W40392  20.703  22.567   7.954 -0.0668 -0.1304 -0.1255
    1W        W40393   2.782  28.601   8.058 -0.0721 -0.2410 -0.3787
    1W        W40394   0.644  16.869   1.942 -0.2521  0.0380  0.0642
    1W        W40395  13.321   3.218   9.413 -0.0187  0.3551  0.1901
    1W        W40396  13.180  20.378   6.135 -0.0172  0.1400 -0.2406
    1W        W40397  23.097  20.970   1.603  0.1039 -0.0829 -0.1331
    1W        W40398  25.572  18.160   8.018  0.1946  0.0153  0.1885
    1W        W40399  14.230  25.966   2.482  0.0714  0.1236 -0.1746
    1W        W40400   7.230  14.192   2.217 -0.0653  0.1412  0.0959
    1W        W40401   5.341  28.811   1.488 -0.0644  0.0391  0.4789
    1W        W40402  11.892   0.661   6.804  0.0741 -0.1133 -0.0991
    1W        W40403   4.922   3.098   9.438 -0.0029 -0.0726  0.2155
    1W        W40404  18.816  13.157   0.621  0.2135  0.2541 -0.2455
    1W        W40405   7.124  21.480   7.436  0.0010 -0.0457  0.0137
    1W        W40406  17.405  29.715   0.810  0.0758  0.0554  0.0998
    1W        W40407  21.964   8.948   8.179  0.0339 -0.1114  0.2236
    1W        W40408  22.787  27.091   1.725 -0.0094 -0.0523 -0.1247
    1W        W40409  24.770  12.656   2.640  0.0233  0.0746  0.0560
    1W        W40410  15.354  25.956   8.530  0.1568  0.2050 -0.5966
    1W        W40411  13.111  19.224   8.564  0.0734  0.3924  0.2455
    1W        W40412  25.703  26.779   6.599  0.0543 -0.0047  0.2493
    1W        W40413  15.253  18.140   0.473 -0.0614  0.1704  0.2356
    1W        W40414  25.767  28.848   6.521  0.0108  0.0706 -0.1745
    1W        W40415  16.762  29.310   2.624 -0.2273  0.1012  0.0134
    1W        W40416  22.257   8.616   0.844 -0.2110 -0.1079  0.2362
    1W        W40417  21.607  26.317   9.080 -0.1302 -0.0484  0.0374
    1W        W40418  13.592   8.688   0.085 -0.0089  0.1302  0.1515
    1W        W40419   3.802  19.734   6.962  0.2004  0.1308 -0.2040
    1W        W40420   4.408  19.742   6.942 -0.1320  0.1083  0.0351
    1W        W40421   8.981  28.813   3.534  0.0813  0.0218  0.0843
    1W        W40422  22.189  11.764   9.145 -0.0156  0.0669 -0.2327
    1W        W40423  13.069   4.595   8.049 -0.2512 -0.0014 -0.1827
    1W        W40424   4.254  12.237   0.324 -0.3374  0.1043  0.1248
    1W        W40425   1.215   1.965   1.464  0.0897  0.0760 -0.0864
    1W        W40426  27.053  21.583   2.582 -0.1163  0.0484  0.3763
    1W        W40427  16.766   5.195   3.355  0.0017 -0.1009 -0.1555
    1W        W40428   4.957  10.785   1.779 -0.0088 -0.1120 -0.0817
    1W        W40429  21.396  16.745   5.956 -0.1437  0.0519 -0.1200
    1W        W40430  13.847  22.378   4.598 -0.2678 -0.3182  0.3095
    1W        W40431   1.770   6.574   2.358  0.0641 -0.0878  0.2039
    1W        W40432   3.126  26.794   8.292 -0.1028  0.0301 -0.2429
    1W        W40433   7.222  28.589   7.914  0.0836 -0.1405 -0.0534
    1W        W40434   5.453  28.599   5.641  0.4441 -0.2164 -0.0146
    1W        W40435  10.874   4.609   7.585 -0.1493  0.3808  0.1713
    1W        W40436   7.471  25.606   1.573 -0.2112 -0.1238  0.2132
    1W        W40437  28.238  16.439   8.019 -0.0701  0.0420  0.1193
    1W        W40438   4.110  27.139   6.998 -0.2649  0.2608 -0.1102
    1W        W40439  19.191  23.618   1.981  0.0287  0.0099 -0.2282
    1W        W40440  23.246  20.069   1.528 -0.3467 -0.2055  0.0648
    1W        W40441   5.766  25.411   1.318  0.0252  0.1312 -0.2017
    1W        W40442  23.458   2.398   8.941 -0.0478  0.3219 -0.1217
    1W        W40443  12.598  21.318   7.402 -0.2095  0.1765 -0.1229
    1W        W40444   0.106  18.962   0.200 -0.3020  0.0170  0.1177
    1W        W40445  27.653  26.969   2.192 -0.2376 -0.2866  0.1488
    1W        W40446  15.952  19.807   8.438  0.2443 -0.0342  0.2405
    1W        W40447  29.260  11.204   0.067 -0.0833 -0.1105 -0.2653
    1W        W40448   1.622  13.236   9.430  0.0252 -0.3523 -0.4184
    1W        W40449  17.736  22.337   1.533 -0.1790 -0.0562 -0.1207
    1W        W40450  17.362  29.654   2.201 -0.2010  0.2782  0.1762
    1W        W40451   1.188  25.037   8.629 -0.1064  0.0201  0.0423
    1W        W40452  25.180  26.594   6.674 -0.3418  0.1513 -0.2554
    1W        W40453  14.736  15.649   6.849 -0.0048 -0.0902 -0.1225
    1W        W40454  26.571  10.877   8.783 -0.1109 -0.1258  0.2464
    1W        W40455   4.353  19.107   0.957 -0.1134  0.1498  0.1487
    1W        W40456  13.831  22.175   8.118 -0.0408 -0.3858 -0.1768
    1W        W40457  12.106  14.585   1.900  0.0056 -0.0754  0.0105
    1W        W40458  17.479  12.572   7.153 -0.1823 -0.0468  0.0293
    1W        W40459   6.012  23.347   1.189 -0.0703 -0.5628  0.1218
    1W        W40460  22.387  12.618   0.005 -0.2176  0.0876 -0.1013
    1W        W40461  10.313   6.411   1.851 -0.5047  0.0367  0.0676
    1W        W40462  18.303   9.907   8.040 -0.2203  0.0853  0.2958
    1W        W40463  19.810   5.258   1.251  0.0802  0.0110 -0.3615
    1W        W40464  19.162  25.394   7.065  0.3101  0.0898 -0.0885
    1W        W40465   3.213  25.259   0.506 -0.0333  0.0881 -0.2010
    1W        W40466  18.844   2.160   1.765  0.1240  0.2818 -0.3404
    1W        W40467  10.332  16.908   6.008 -0.0317 -0.0930 -0.3659
    1W        W40468  13.360  17.679   1.792  0.5718 -0.3136  0.2958
    1W        W40469  24.150   1.612   0.411 -0.0680  0.3286 -0.2729
    1W        W40470   7.566  10.579   1.738  0.2938 -0.2095  0.2168
    1W        W40471  21.043  23.526   8.935 -0.0160  0.1282 -0.0317
    1W        W40472  18.346  27.703   9.052  0.0711 -0.4296 -0.0798
    1W        W40473  25.295   6.675   0.273 -0.2190  0.1495 -0.3070
    1W        W40474   8.404  27.289   8.316 -0.0009 -0.0399 -0.0169
    1W        W40475   4.241   5.555   7.952 -0.1338  0.1314  0.0287
    1W        W40476   9.827  21.175   7.848 -0.2119  0.4223 -0.1140
    1W        W40477  15.840   4.437   3.285  0.2528 -0.0052  0.2205
    1W        W40478  13.497  21.603   8.517 -0.3876 -0.3948 -0.0301
    1W        W40479  12.496  28.239   7.806  0.0955  0.2185 -0.2033
    1W        W40480   2.637  16.069   8.560 -0.1241  0.1050 -0.1316
    1W        W40481   3.679  28.848   0.793 -0.3809  0.0442 -0.2989
    1W        W40482   9.724  26.167   1.186 -0.1487 -0.1448 -0.2115
    1W        W40483   9.550  10.389   0.653  0.0279 -0.0767  0.2160
    1W        W40484  13.073  26.019   0.925  0.0725  0.2252  0.1023
    1W        W40485  23.179  23.726   1.393 -0.0830  0.0747 -0.0801
    1W        W40486  24.843  10.548   8.538  0.2853  0.1490 -0.0392
    1W        W40487  28.354  19.885   0.150 -0.2414 -0.0362  0.0091
    1W        W40488  15.940  23.009   6.221  0.1088  0.0050 -0.3328
    1W        W40489   3.527  16.409   9.451 -0.2654  0.0268  0.1001
    1W        W40490   9.564  24.455   6.929 -0.0834  0.0299  0.2171
    1W        W40491   9.208  12.056   7.674  0.0058 -0.0215 -0.1479
    1W        W40492  18.210  19.021   5.555 -0.1688 -0.0008  0.1529
    1W        W40493   3.197   9.576   8.764 -0.4737 -0.3651  0.0160
    1W        W40494  20.060   4.242   2.682  0.2230  0.0026 -0.2835
    1W        W40495   1.830   8.865   7.806  0.0248  0.0392 -0.2620
    1W        W40496  10.584  29.600   9.273 -0.0435  0.3203  0.3854
    1W        W40497  24.483  15.768   3.160  0.1562 -0.4136 -0.0547
    1W        W40498  11.092  14.343   7.637 -0.0197 -0.1172 -0.0748
    1W        W40499  21.687  14.677   1.414 -0.1175 -0.2416  0.0499
    1W        W40500  20.804  26.922   8.556 -0.3066 -0.2653  0.0490
    1W        W40501  21.317  21.287   7.752 -0.0460  0.0687 -0.0056
    1W        W40502   9.254  13.279   9.205 -0.0734 -0.0131  0.1916
    1W        W40503  28.870  22.263   9.501  0.2107 -0.0057 -0.1818
    1W        W40504   4.405   8.701   7.687  0.0842 -0.1241  0.0987
    1W        W40505  10.293   3.281   1.360 -0.0352 -0.1765 -0.1931
    1W        W40506   9.817   8.269   1.425  0.1965 -0.1113  0.2368
    1W        W40507  29.342   4.654   7.094 -0.2832 -0.3789  0.1336
    1W        W40508  24.752  15.428   9.259  0.1708 -0.2311 -0.1102
    1W        W40509  27.139  25.678   0.054 -0.1048  0.1099 -0.0137
    1W        W40510   7.639  26.731   2.711  0.4409 -0.1931 -0.1217
    1W        W40511  27.860   1.132   2.400  0.0730  0.3052 -0.0578
    1W        W40512  22.143  19.880   9.203 -0.0485  0.0725 -0.1000
    1W        W40513  11.416   7.392   7.727  0.1149 -0.4012  0.0554
    1W        W40514  25.771   3.682   1.670 -0.0413  0.1791  0.1544
    1W        W40515  15.084  15.796   7.152 -0.1899 -0.0910 -0.1270
    1W        W40516  16.480   4.111   1.463  0.0948  0.2894  0.1325
    1W        W40517   1.221   0.082   1.828  0.0310 -0.0340 -0.2479
    1W        W40518  24.779  29.556   0.713  0.2306 -0.0909  0.0023
    1W        W40519   3.170  25.946   6.163  0.0767  0.2166  0.0802
    1W        W40520   0.783  28.595   7.160 -0.1474  0.2699 -0.0897
    1W        W40521  17.342  27.911   8.285 -0.1043 -0.1547 -0.1060
    1W        W40522  25.613   1.395   8.620  0.0629  0.1933 -0.1612
    1W        W40523  16.970  10.888   9.423  0.1512  0.2151 -0.2577
    1W        W40524   7.167  11.145   8.405  0.2566 -0.2104 -0.2205
    1W        W40525  10.247  17.377   0.110  0.2469  0.0220 -0.2558
    1W        W40526   1.132   5.830   0.036  0.2455 -0.0975  0.0006
    1W        W40527  29.600  15.731   1.568 -0.1870  0.0109  0.1288
    1W        W40528  17.220  28.705   1.966 -0.0098  0.0240  0.0551
    1W        W40529   0.764   3.127   7.573 -0.2628  0.0780  0.0296
    1W        W40530  27.098  24.783   8.107  0.1974  0.1439 -0.4295
    1W        W40531  12.110  17.965   0.560  0.0455  0.0629 -0.0738
    1W        W40532  18.130  28.445   0.733  0.0361 -0.0087 -0.1654
    1W        W40533  23.103   5.100   8.938  0.0110  0.1485 -0.1916
    1W        W40534  24.185  10.946   0.255  0.1413  0.0001 -0.2977
    1W        W40535   7.178  20.445   8.620  0.1093  0.0537  0.3119
    1W        W40536   0.471  11.722   0.961  0.1870 -0.0717  0.0976
    1W        W40537  19.481   7.713   8.429  0.1184  0.1109 -0.2958
    1W        W40538  24.642  28.922   9.059  0.2905 -0.3180 -0.1824
    1W        W40539  13.333  26.299   6.854 -0.2119 -0.5270 -0.5006
    1W        W40540   0.973  28.701   9.292 -0.1098  0.1207  0.2343
    1W        W40541  24.708   9.092   9.121 -0.1597 -0.0121  0.0926
    1W        W40542  17.164  24.728   0.975 -0.0399 -0.1222  0.0531
    1W        W40543   2.098   9.355   1.680  0.0370 -0.0263 -0.1580
    1W        W40544  25.494  25.338   1.756 -0.1179 -0.0346 -0.0994
    1W        W40545   9.464  28.163   5.772 -0.0345 -0.2003  0.3107
    1W        W40546  17.488   4.294   1.357 -0.2561 -0.0335 -0.3540
    1W        W40547  28.079  17.247   2.869  0.1632 -0.4036 -0.0185
    1W        W40548  27.989  15.481   9.395 -0.1298 -0.2597 -0.2574
    1W        W40549   5.183  16.351   2.734  0.0337 -0.1836 -0.1959
    1W        W40550   1.301  16.201   7.316 -0.1172 -0.0761  0.3700
    1W        W40551  28.669  10.989   8.883  0.2161  0.2128  0.2236
    1W        W40552  24.836  23.019   1.997  0.0589  0.2059  0.3448
    1W        W40553  21.403  21.259   8.316  0.1141  0.1633  0.0135
    1W        W40554   6.590   4.192   7.374 -0.3876 -0.0093  0.2662
    1W        W40555   8.424  29.305   8.557  0.2781 -0.0581 -0.0843
    1W        W40556  22.483   0.861   7.713 -0.0620 -0.3130  0.3230
    1W        W40557   9.241  10.946   2.703  0.1539 -0.0134 -0.1404
    1W        W40558   2.058  13.806   1.577 -0.2725 -0.0021  0.4426
    1W        W40559   0.473  21.450   7.493  0.0370 -0.0765 -0.0128
    1W        W40560   7.581   6.835   1.708  0.0222  0.0001 -0.2706
    1W        W40561  15.167   2.170   9.180 -0.1640 -0.2683  0.3273
    1W        W40562  29.261   7.008   9.460  0.2448  0.0553  0.1323
    1W        W40563   5.786  21.349   0.058  0.0540 -0.2491 -0.1981
    1W        W40564  13.170  17.456   8.343  0.1678 -0.0391 -0.1933
    1W        W40565  27.002  27.605   1.635 -0.1850 -0.1207  0.2306
    1W        W40566  24.805   2.678   7.263  0.2250 -0.0262 -0.4145
    1W        W40567   6.545  27.234   7.475 -0.3943  0.0453 -0.4600
    1W        W40568  28.233   9.927   1.466 -0.0112  0.2568  0.3422
    1W        W40569   9.633   0.521   8.581  0.1622 -0.0216 -0.0612
    1W        W40570  25.187  16.686   6.587 -0.0991 -0.1092 -0.2950
    1W        W40571  23.077  29.814   8.392 -0.0150 -0.0656 -0.3801
    1W        W40572   2.515  16.611   0.109 -0.0187  0.2890 -0.0694
    1W        W40573   4.829  28.615   6.373  0.0867  0.2779 -0.1357
    1W        W40574   6.573   1.709   7.206  0.1294 -0.0608  0.1261
    1W        W40575   9.052  17.779   9.392  0.0962  0.2433 -0.0805
    1W        W40576  16.085  18.188   9.061 -0.1302  0.3338 -0.0526
    1W        W40577  26.690   4.448   9.088  0.3455  0.1782  0.0979
    1W        W40578  26.876  26.281   7.301 -0.1367  0.0002 -0.1670
    1W        W40579  29.165   3.540   8.162 -0.1101  0.3164  0.1603
    1W        W40580  20.857  28.672   8.915 -0.1937  0.1420  0.1167
    1W        W40581  26.047  11.747   8.061  0.1353  0.2701  0.0123
    1W        W40582  27.926  26.283   2.580 -0.3077 -0.1618 -0.1171
    1W        W40583   2.039  20.888   9.365  0.1391  0.2751  0.1107
    1W        W40584   9.933  16.136   1.176  0.1515  0.1936  0.3140
    1W        W40585  10.879   8.420   2.355  0.0009  0.2060  0.0984
    1W        W40586   3.032   3.364   9.478 -0.2524  0.2231 -0.2906
    1W        W40587  16.869   6.528   0.742  0.0194 -0.0780  0.0423
    1W        W40588  28.517  24.124   6.672  0.3358  0.1461  0.0891
    1W        W40589   5.889  25.502   7.427  0.1338  0.1269  0.2596
    1W        W40590  22.817  25.304   1.241 -0.0043  0.2382  0.0315
    1W        W40591  29.840   9.794   7.261  0.3877  0.0009  0.0900
    1W        W40592   6.394  18.057   7.483 -0.1195  0.0599 -0.0666
    1W        W40593  12.190  23.348   6.394 -0.0598  0.0570  0.1243
    1W        W40594  23.163  17.201   1.285 -0.1157 -0.1902  0.1110
    1W        W40595  16.638  26.843   2.489  0.0840 -0.0716 -0.0731
    1W        W40596   3.020   4.305   9.404 -0.1506 -0.1146 -0.1065
    1W        W40597  12.097  28.522   0.476  0.0348  0.0628  0.1544
    1W        W40598   1.309   1.339   1.239 -0.1860  0.1720  0.2132
    1W        W40599  22.838  20.947   9.209 -0.0205 -0.1416  0.1998
    1W        W40600  21.449   4.799   1.197 -0.0083  0.1841  0.0306
    1W        W40601  12.956   9.478   7.692  0.2641 -0.0954 -0.0691
    1W        W40602  24.057   8.975   2.507 -0.0976  0.0134 -0.0544
    1W        W40603   3.673   0.724   0.292 -0.1333 -0.1584  0.0747
    1W        W40604   5.130  18.764   2.160 -0.1191 -0.0235  0.1303
    1W        W40605   7.727   1.074   2.059  0.1378  0.0294  0.0044
    1W        W40606  28.279   8.795   8.401  0.2710 -0.0580  0.1067
    1W        W40607   3.577  16.723   6.196  0.1242 -0.0124 -0.3078
    1W        W40608  29.210   2.187   1.756 -0.0762  0.0888  0.1620
    1W        W40609   7.573  21.116   9.033  0.3511 -0.2228  0.1179
    1W        W40610  18.935  25.533   8.796  0.4422  0.1057 -0.2237
    1W        W40611   6.030   2.432   1.574 -0.1089 -0.0499 -0.0531
    1W        W40612  29.754   4.775   2.749  0.2504 -0.1032 -0.1150
    1W        W40613  11.320  25.031   0.218  0.0231 -0.2483  0.3280
    1W        W40614  16.691  21.535   8.093 -0.1040 -0.1523  0.0779
    1W        W40615  21.927  25.126   7.107  0.4145 -0.3260  0.2994
    1W        W40616  21.775  19.366   7.156 -0.3956 -0.0716  0.0404
    1W        W40617   1.623  28.086   7.180  0.1550 -0.0529  0.1174
    1W        W40618  18.541  18.284   1.535 -0.4059  0.0660 -0.2609
    1W        W40619   3.218  12.275   6.478 -0.1760 -0.1863  0.1394
    1W        W40620  23.629  17.290   1.514 -0.1305 -0.0004 -0.0644
    1W        W40621  23.467   7.518   9.209 -0.0833 -0.2927  0.1357
    1W        W40622  23.099  12.903   8.604 -0.0369 -0.0518  0.0930
    1W        W40623   4.658   3.610   1.763 -0.1062  0.1512  0.0235
    1W        W40624  18.490   7.099   0.529  0.3292 -0.1476 -0.1113
    1W        W40625   8.539  29.366   2.303  0.0301 -0.2015  0.2157
    1W        W40626  29.702  19.155   8.298 -0.0045  0.0050 -0.1176
    1W        W40627  14.592  17.055   9.045 -0.1043  0.0428 -0.0715
    1W        W40628  22.444   9.186   3.391  0.1026  0.2062  0.0331
    1W        W40629  13.918   4.414   0.092 -0.1584  0.1032  0.0745
    1W        W40630  19.102  15.998   9.283  0.1621 -0.3450  0.0504
    1W        W40631   2.266  10.376   2.076 -0.2649  0.1343  0.0071
    1W        W40632  19.556  24.330   1.450 -0.3218 -0.1462 -0.1808
    1W        W40633  22.276   2.646   2.542 -0.2614 -0.1392  0.0319
    1W        W40634   1.374   4.127   0.368 -0.0985  0.0243  0.0476
    1W        W40635   8.671  26.606   1.689  0.1544 -0.0278  0.2568
    1W        W40636   5.471   3.316   0.704  0.0636  0.2386 -0.1075
    1W        W40637  10.840  12.335   0.453 -0.0493 -0.4831 -0.0355
    1W        W40638   6.399  26.700   0.859  0.0193  0.2567 -0.1016
    1W        W40639   4.233  16.209   6.729  0.1226  0.0428 -0.0262
    1W        W40640  10.523   1.948   2.875 -0.1047 -0.1061  0.1359
    1W        W40641  27.781   5.688   6.945  0.2293  0.0102  0.0897
    1W        W40642  16.132  10.271   0.826  0.2119 -0.0122 -0.0256
    1W        W40643  19.901   8.065   9.469  0.2023 -0.1907 -0.0125
    1W        W40644  13.085  17.403   6.008  0.0570  0.1422 -0.4025
    1W        W40645  11.513  21.661   2.277  0.1274  0.2218 -0.1174
    1W        W40646  13.878   2.666   2.046 -0.1832 -0.0225 -0.0310
    1W        W40647   4.003  29.170   1.424 -0.0157 -0.0217 -0.2526
    1W        W40648   6.980   3.304   2.809  0.1242  0.0206 -0.0340
    1W        W40649  16.668   6.749   8.403 -0.1998  0.3469 -0.1566
    1W        W40650  11.588  11.806   7.454  0.1433  0.2011 -0.1064
    1W        W40651   1.948  17.544   0.796 -0.2639 -0.4251 -0.4680
    1W        W40652  13.886  27.916   2.745  0.1767 -0.3092 -0.1948
    1W        W40653   2.762   0.650   7.399 -0.2083  0.0659 -0.0409
    1W        W40654   3.233  10.866   2.276  0.3114 -0.3885 -0.1624
    1W        W40655  16.176  19.200   9.189 -0.1206  0.0694  0.2820
    1W        W40656  17.732   6.360   9.230 -0.1519  0.0260  0.0201
    1W        W40657  14.259  15.639   8.179 -0.1873  0.0875 -0.0897
    1W        W40658   0.552  18.631   1.329  0.1109 -0.2020 -0.0855
    1W        W40659  17.939  21.635   0.196 -0.2670 -0.1299  0.1218
    1W        W40660  21.524  27.914   7.250  0.2414 -0.0660 -0.0646
    1W        W40661   7.807  10.252   7.293  0.0417 -0.0303  0.0247
    1W        W40662  13.259  27.893   6.212 -0.0235 -0.0718 -0.0393
    1W        W40663  25.259  12.371   1.182  0.0079  0.1964 -0.3357
    1W        W40664   3.822  23.053   2.101 -0.0381  0.2498  0.1223
    1W        W40665  18.157  25.501   1.353 -0.0218  0.1568  0.3345
    1W        W40666  24.447   3.330   0.423  0.3575 -0.0909 -0.1713
    1W        W40667  18.032  18.240   7.972 -0.1445  0.1716 -0.2016
    1W        W40668  23.186  10.174   7.652 -0.0831  0.1944  0.2560
    1W        W40669  18.396   5.629   0.293  0.3212  0.2419  0.0256
    1W        W40670   4.454   5.976   6.846  0.0292 -0.3638  0.2277
    1W        W40671  25.793   4.333   1.681  0.0495  0.0061  0.0294
    1W        W40672  18.583  23.928   6.982  0.0796  0.0495 -0.0173
    1W        W40673  11.295   3.542   2.196  0.0700  0.0501  0.0414
    1W        W40674  26.391   6.467   7.115  0.3146  0.0087 -0.2354
    1W        W40675   6.277  20.627   9.339  0.2870  0.1389 -0.0118
    1W        W40676  18.389  16.650   7.294 -0.1950 -0.0097  0.1699
    1W        W40677  14.436  24.095   5.891 -0.0237  0.2776  0.1766
    1W        W40678  15.996  19.588   7.535  0.1024  0.0950 -0.1789
    1W        W40679  22.906  22.138   8.789 -0.0375 -0.0414  0.1233
    1W        W40680   6.633  16.833   8.328 -0.3640  0.3770 -0.4212
    1W        W40681  24.639  10.878   2.113  0.0813  0.0795 -0.4614
    1W        W40682  20.977  20.584   1.104  0.2412  0.0937 -0.2842
    1W        W40683   5.125   7.297   1.128 -0.2013 -0.1294  0.0601
    1W        W40684  17.189   9.248   2.626  0.0616 -0.4040  0.0361
    1W        W40685   0.026   6.061   7.179 -0.1536 -0.0195  0.0035
    1W        W40686  23.949   9.860   2.279 -0.0869  0.2008  0.1914
    1W        W40687  11.192   7.940   3.583 -0.0290 -0.2866 -0.0066
    1W        W40688   2.649  29.201   7.347  0.0572 -0.0271  0.0411
    1W        W40689   3.245   9.503   3.172  0.0827  0.1004  0.5749
    1W        W40690   4.539   7.661   7.942 -0.2325 -0.1164 -0.3058
    1W        W40691  26.303  16.788   7.376  0.0374 -0.2668  0.1301
    1W        W40692   9.202  20.886   1.109  0.0303 -0.0972  0.0405
    1W        W40693  28.330   1.978   6.331  0.1348  0.2792 -0.1006
    1W        W40694  21.539   1.646   2.815 -0.0480  0.3881 -0.1374
    1W        W40695  21.943  29.116   9.084 -0.1136  0.0043 -0.1788
    1W        W40696  17.895   3.042   2.810  0.0706 -0.1551  0.1930
    1W        W40697   0.692  20.975   7.483 -0.1029  0.1030  0.1269
    1W        W40698  28.236  27.166   6.768 -0.1692 -0.4480  0.1147
    1W        W40699   7.267  24.781   0.511  0.4505  0.2059 -0.2636
    1W        W40700  15.607   8.692   1.175  0.0237  0.3117  0.2299
    1W        W40701  16.969  11.616   8.047 -0.1990  0.0466  0.2584
    1W        W40702  10.400  15.734   7.350  0.2977  0.0132  0.3497
    1W        W40703  29.607  23.355   0.285 -0.0321 -0.0612  0.0672
    1W        W40704  27.541  10.605   0.007  0.0602  0.0762 -0.1244
    1W        W40705  29.499  11.674   6.880  0.1784 -0.0114  0.0452
    1W        W40706  15.792  20.922   7.621 -0.1003  0.0474  0.1112
    1W        W40707  19.044   0.850   0.992  0.0477  0.0629 -0.1090
    1W        W40708  13.458  20.595   7.606  0.1196 -0.0553  0.2100
    1W        W40709  15.107  23.335   8.042 -0.2562  0.0880  0.0882
    1W        W40710   9.993   9.404   0.410 -0.2336  0.2144 -0.1864
    1W        W40711  22.840   2.413   9.289  0.1224  0.2991 -0.1017
    1W        W40712  10.549  24.510   7.865 -0.0601  0.1191  0.1049
    1W        W40713  23.294  14.648   0.519  0.0259  0.1096  0.3254
    1W        W40714   5.050  29.107   1.151  0.0542 -0.0087  0.1039
    1W        W40715   3.401  29.671   7.265  0.0792  0.2229  0.0999
    1W        W40716  11.227  25.124   7.087  0.2053  0.2356  0.0170
    1W        W40717  19.818  20.421   1.391 -0.0727  0.1480  0.0733
    1W        W40718   6.903  20.279   7.449  0.0112 -0.1313  0.1238
    1W        W40719  29.544   8.954   2.307  0.3083 -0.1392  0.0992
    1W        W40720  22.887   3.672   4.153 -0.0799 -0.1437 -0.0719
    1W        W40721   8.746   8.741   0.420  0.0733  0.1015  0.3687
    1W        W40722  27.825   0.108   2.213 -0.0560  0.1435 -0.1603
    1W        W40723   5.044  14.183   1.118 -0.0638  0.3217  0.3326
    1W        W40724   2.393   8.655   6.948  0.1687 -0.1748 -0.1016
    1W        W40725  29.538  10.015   7.659 -0.0340 -0.1240  0.0978
    1W        W40726  27.399   3.554   1.430 -0.0352  0.0702  0.0364
    1W        W40727  24.723   4.546   1.152  0.1908  0.1313  0.0329
    1W        W40728  26.934   2.027   8.705  0.1057  0.5040  0.1834
    1W        W40729  24.165  20.889   1.729  0.1925  0.0876  0.2694
    1W        W40730  18.584  16.094   2.611 -0.0248 -0.0460 -0.2052
    1W        W40731   2.203   6.101   1.248  0.2170 -0.5949  0.0476
    1W        W40732   7.843  22.023   8.857  0.0521  0.3858 -0.0155
    1W        W40733   4.521   6.467   0.047  0.3473  0.2240 -0.0644
    1W        W40734   8.552   0.359   8.685 -0.1103 -0.0616 -0.3060
    1W        W40735  11.489   7.483   2.918  0.1591 -0.1781 -0.0889
    1W        W40736   5.753  27.347   8.136  0.3124  0.2316 -0.0239
    1W        W40737   4.644   7.542   3.042  0.0202 -0.1433 -0.1870
    1W        W40738  20.256   1.291   7.751  0.1530 -0.2349 -0.1756
    1W        W40739  27.409   7.980   0.035 -0.0277 -0.2011  0.0754
    1W        W40740  10.308  16.323   6.070 -0.1689 -0.0844 -0.1888
    1W        W40741   5.915  12.675   1.522  0.0705  0.1863  0.0427
    1W        W40742  20.466  28.516   8.037 -0.6235  0.1740 -0.0146
    1W        W40743   7.681  29.488   6.962 -0.0325 -0.2397  0.0230
    1W        W40744   5.235  12.834   9.435 -0.0888  0.2431 -0.3360
    1W        W40745  24.836  12.815   0.444  0.2295 -0.2658  0.0745
    1W        W40746  12.760  11.021   8.961 -0.1112  0.0477 -0.0059
    1W        W40747   5.416  25.376   8.075 -0.1467  0.1234 -0.1689
    1W        W40748  25.556  22.395   7.964 -0.0310 -0.2247 -0.2090
    1W        W40749  29.142  15.456   8.598  0.2041  0.2931  0.2803
    1W        W40750  24.355  23.297   2.027  0.1832  0.0542  0.0219
    1W        W40751  18.359  12.598   8.606  0.0714 -0.0136 -0.2459
    1W        W40752  28.299   7.557   6.566  0.0344  0.3203 -0.2572
    1W        W40753   7.814  25.837   8.071  0.2912  0.0174  0.3759
    1W        W40754  22.355  20.332   9.179 -0.1003 -0.1499 -0.2690
    1W        W40755  26.530   6.263   8.954 -0.1540 -0.1242  0.0829
    1W        W40756   4.368  15.878   2.969  0.1878 -0.1812 -0.1823
    1W        W40757  11.685   5.296   7.663  0.0469  0.0779 -0.1916
    1W        W40758  24.546   1.946   9.449  0.0925 -0.0780  0.0189
    1W        W40759  29.673  26.553   0.832 -0.0333  0.1677  0.1050
    1W        W40760   3.317  13.367   7.313 -0.2634  0.1690 -0.0825
    1W        W40761  12.104   1.898   2.302  0.2629 -0.3168 -0.1275
    1W        W40762  11.039  15.063   7.253 -0.0054  0.0824 -0.0448
    1W        W40763   2.257   4.455   1.996 -0.0247 -0.2861 -0.1953
    1W        W40764  14.742  18.530   9.398  0.2056 -0.1696 -0.0257
    1W        W40765  21.295  21.081   5.759  0.4435  0.0188  0.3055
    1W        W40766  21.056  20.871   6.776  0.0256  0.2723  0.4708
    1W        W40767  26.262   0.058   8.591 -0.2761 -0.1160  0.0379
    1W        W40768   9.795  13.135   2.282  0.1321 -0.0594 -0.1225
    1W        W40769   1.183   9.110   1.122 -0.0403  0.1265 -0.0062
    1W        W40770   8.226   2.659   8.678 -0.2000 -0.3404  0.1132
    1W        W40771  27.424  18.787   6.916 -0.0960  0.0417  0.1587
    1W        W40772  20.703   5.817   8.273 -0.0866  0.0304  0.2458
    1W        W40773  14.320   1.301   0.780  0.1919  0.0241  0.0688
    1W        W40774  11.749   2.278   3.799 -0.0722  0.1030 -0.3238
    1W        W40775  17.956  25.874   6.898 -0.0560  0.0148  0.3784
    1W        W40776  22.056  20.994   3.027  0.2437 -0.0880  0.2421
    1W        W40777   1.637   8.425   1.284  0.0539 -0.1451 -0.0012
    1W        W40778  29.674  26.547   8.832  0.0481  0.0456 -0.1880
    1W        W40779  19.568  24.261   8.643  0.0962 -0.0918 -0.0273
    1W        W40780  16.583  10.813   2.684 -0.0036 -0.2816 -0.0260
    1W        W40781   9.623  29.810   8.562 -0.1244  0.0630  0.0368
    1W        W40782   6.732  18.502   8.786 -0.1730  0.5020  0.0210
    1W        W40783   0.696  12.707   1.080 -0.1067  0.1446 -0.1426
    1W        W40784  24.459  20.114   2.904 -0.0069 -0.2737 -0.1088
    1W        W40785   0.445  28.855   0.413 -0.0595  0.2790 -0.0867
    1W        W40786  17.798   9.673   0.704  0.1607 -0.2442  0.1335
    1W        W40787  18.986  17.628   8.033  0.3446 -0.0134  0.0475
    1W        W40788   4.803  27.944   7.627  0.2732 -0.2273  0.1419
    1W        W40789   1.889  16.017   6.513  0.1942 -0.0284  0.0504
    1W        W40790  26.534  10.882   1.407  0.1783 -0.3736 -0.3071
    1W        W40791   4.601  11.667   1.292  0.1457 -0.0497  0.3816
    1W        W40792   0.401  13.878   2.415 -0.0472 -0.2846  0.0561
    1W        W40793  18.567   1.911   0.022  0.2390  0.2500 -0.0750
    1W        W40794  25.700  26.983   9.250  0.3453 -0.2132  0.1242
    1W        W40795   5.752  12.678   7.527  0.1422 -0.0193  0.0646
    1W        W40796  24.487   0.474   2.019  0.1027 -0.2707  0.0486
    1W        W40797  24.158  17.765   0.468  0.0366 -0.0773 -0.0322
    1W        W40798  21.568  25.581   1.249 -0.1537  0.1802  0.0441
    1W        W40799   5.163  21.157   0.410  0.0164 -0.0322  0.2566
    1W        W40800   3.548  28.050   8.134 -0.2751 -0.4418  0.0069
    1W        W40801   1.076  22.377   9.067  0.0305 -0.3170 -0.0881
    1W        W40802  19.886  17.989   7.188 -0.0070  0.2048 -0.0792
    1W        W40803  24.665  21.136   2.075 -0.0992 -0.0550 -0.0041
    1W        W40804   4.437  22.892   0.246 -0.0649 -0.0636  0.3993
    1W        W40805   8.208  20.230   1.387  0.2937 -0.3153  0.0568
    1W        W40806   2.225  15.887   2.250 -0.0660 -0.3979  0.3294
    1W        W40807   0.649   5.387   7.456 -0.2542 -0.2119 -0.0451
    1W        W40808   9.555  29.438   1.730  0.1198  0.0550 -0.0921
    1W        W40809   4.168  21.516   7.738 -0.0322 -0.1969  0.0800
    1W        W40810  12.709   5.453   1.385 -0.0136  0.2022 -0.4767
    1W        W40811  25.390  26.531   0.336 -0.1090  0.1543  0.0187
    1W        W40812  13.399  15.131   9.227 -0.0878 -0.0515 -0.1009
    1W        W40813  25.349  17.419   2.770 -0.2820  0.0166  0.2371
    1W        W40814   2.198   5.711   3.273  0.0328  0.0766 -0.0851
    1W        W40815  11.152  19.985   1.644 -0.1447  0.1839 -0.0058
    1W        W40816  16.910  27.242   6.958 -0.2185 -0.1216 -0.2390
    1W        W40817  16.503  11.911   7.794 -0.1560  0.1791  0.0129
    1W        W40818   8.193  19.612   9.030 -0.1327 -0.0780 -0.0161
    1W        W40819  27.819   6.557   8.856 -0.0021 -0.4551  0.0952
    1W        W40820   9.782   8.043   1.835 -0.1213  0.1798 -0.0789
    1W        W40821  23.074   8.639   1.127 -0.0636  0.4194 -0.1793
    1W        W40822  13.619  17.575   7.451 -0.0922 -0.1816  0.0187
    1W        W40823  24.390  26.537   7.996  0.2104 -0.0099 -0.1168
    1W        W40824   5.657   8.047   2.575  0.0946 -0.1994 -0.2841
    1W        W40825  20.203  17.144   1.228  0.0897  0.3675  0.1215
    1W        W40826   0.587  24.313   8.903  0.1132 -0.0571 -0.1437
    1W        W40827   9.425  19.146   1.474  0.2559  0.0991  0.1194
    1W        W40828   7.671  25.381   1.154  0.2154 -0.0642 -0.0787
    1W        W40829   3.559  12.829   2.698 -0.0862 -0.0595  0.0364
    1W        W40830  14.419   5.571   1.075  0.1000  0.0196 -0.2759
    1W        W40831  27.593  22.116   2.231 -0.2586  0.0374  0.0175
    1W        W40832  13.963  14.132   8.056  0.2028  0.0972 -0.1681
    1W        W40833  23.926  23.462   2.242  0.0675  0.0825 -0.2593
    1W        W40834  17.491  15.063   9.182 -0.1498 -0.0608 -0.1029
    1W        W40835   5.845  16.372   7.992  0.1498 -0.1548 -0.0928
    1W        W40836  13.541  16.181   2.109 -0.0010  0.0178  0.0974
    1W        W40837   3.478   3.894   8.279 -0.3442  0.0220  0.1735
    1W        W40838   5.764   3.743   8.254  0.0746  0.0780 -0.3031
    1W        W40839  20.555  21.599   9.058  0.0918 -0.0217 -0.1810
    1W        W40840  27.633   7.563   7.397  0.1456 -0.0933  0.2864
    1W        W40841  12.204  27.343   1.150  0.0773  0.1659  0.5206
    1W        W40842  15.949  29.532   2.284  0.0813  0.1420 -0.1013
    1W        W40843   7.832  28.515   0.368  0.0844 -0.2074  0.0368
    1W        W40844  12.990   5.815   1.354  0.1396  0.1122 -0.0069
    1W        W40845   4.916   8.454   2.183  0.1671  0.2417 -0.1911
    1W        W40846  27.546   2.537   6.577  0.4148  0.0157 -0.1587
    1W        W40847  22.469   8.096   8.043 -0.1629 -0.0873  0.1820
    1W        W40848  28.041  11.524   1.113  0.2649  0.0885  0.0455
    1W        W40849  22.489  10.337   0.728 -0.3220 -0.0105 -0.2206
    1W        W40850  26.817  14.594   8.175  0.1795  0.1559  0.1380
    1W        W40851  23.984  24.484   2.436 -0.1022 -0.0808  0.2342
    1W        W40852  15.355  15.806   1.803 -0.1772  0.1213 -0.1307
    1W        W40853  16.667  25.515   1.897 -0.0544  0.0826 -0.0986
    1W        W40854  23.317  12.448   2.304  0.3300 -0.3665  0.0204
    1W        W40855   8.374   3.771   9.097 -0.0211 -0.1292  0.2168
    1W        W40856  28.786  20.808   1.476  0.1469  0.0684  0.2981
    1W        W40857  19.382  19.733   8.061  0.0654  0.2371 -0.0787
    1W        W40858   8.368  18.063   2.215 -0.2092  0.2702 -0.0622
    1W        W40859  23.334  20.803   1.087  0.1342  0.1785 -0.1818
    1W        W40860  27.351  22.209   1.443  0.0671 -0.2198 -0.0910
    1W        W40861   1.034   5.516   7.941 -0.2658 -0.3617  0.0614
    1W        W40862  29.623   2.842   2.672  0.0060 -0.1814  0.2800
    1W        W40863   8.892   7.364   6.997 -0.1564 -0.0469  0.3686
    1W        W40864  11.589  12.151   7.828  0.0260  0.1126 -0.0251
    1W        W40865  21.519  11.080   0.075  0.1212  0.2924  0.3811
    1W        W40866  21.434  26.174   2.130 -0.3664 -0.2312 -0.3357
    1W        W40867   7.776  29.746   9.092  0.0171  0.0014  0.2214
    1W        W40868  21.847  25.994   1.795  0.2392  0.1525 -0.1497
    1W        W40869  28.139  23.487   1.286 -0.1872  0.0343 -0.3687
    1W        W40870  23.414   7.412   0.382 -0.0261 -0.2153  0.1838
    1W        W40871  24.851  19.815   8.537 -0.5585 -0.1069  0.2160
    1W        W40872  16.104  24.574   1.245  0.1483  0.1375  0.2124
    1W        W40873  25.109  26.096   9.251 -0.2867  0.4181  0.0002
    1W        W40874   8.057   7.380   8.696 -0.1618 -0.1643  0.0147
    1W        W40875   2.592  27.418   8.706 -0.0763  0.3449 -0.0994
    1W        W40876   7.015  13.340   1.475 -0.0008  0.0867  0.0230
    1W        W40877   6.517   6.178   0.642 -0.0700 -0.1743 -0.1808
    1W        W40878  25.924  15.690   9.036 -0.0254  0.0227 -0.0874
    1W        W40879   4.691   7.225   8.907  0.2380  0.3855 -0.3045
    1W        W40880  13.101  10.493   9.393 -0.3417  0.0282  0.1491
    1W        W40881  21.092   5.074   2.717 -0.3365  0.1876 -0.1597
    1W        W40882  26.850  20.214   1.372 -0.1665 -0.2047 -0.2354
    1W        W40883  22.251   1.870   8.068 -0.1335  0.2782  0.0259
    1W        W40884   1.318  11.502   2.264 -0.2212 -0.1082 -0.2940
    1W        W40885  10.336  29.592   1.166  0.1501 -0.1598  0.0115
    1W        W40886   0.291  25.405   7.570  0.2060  0.2596 -0.0612
    1W        W40887  28.955  11.709   2.142  0.0085  0.0238 -0.1033
    1W        W40888   1.475  22.374   6.220  0.0157 -0.1589  0.2986
    1W        W40889   2.569  21.430   0.605  0.2571 -0.1698 -0.0049
    1W        W40890   2.304  27.671   1.257  0.0867 -0.0557  0.1534
    1W        W40891  19.388  13.855   8.471  0.1205 -0.1244  0.0788
    1W        W40892  24.617  27.166   1.137 -0.1245 -0.0719  0.1417
    1W        W40893  28.778   4.579   2.237 -0.0678  0.1070  0.1698
    1W        W40894  29.669  14.910   0.290  0.1365  0.0987 -0.0799
    1W        W40895  17.398  11.783   0.200 -0.0911  0.0399  0.0173
    1W        W40896  17.919  25.331   6.760  0.1325 -0.0768 -0.0190
    1W        W40897   0.427  10.556   1.808  0.6168  0.1075  0.2605
    1W        W40898   2.416  28.482   8.479 -0.1216 -0.1324 -0.1288
    1W        W40899  25.049  22.797   2.421 -0.1860  0.1201 -0.2242
    1W        W40900   3.549   8.512   1.383  0.1231  0.0378 -0.0070
    1W        W40901  29.661  10.639   1.218  0.0680 -0.0513 -0.0317
    1W        W40902  11.458  10.972   2.041 -0.3460  0.1218 -0.1247
    1W        W40903   6.001  27.763   7.973  0.1520 -0.0399  0.0455
    1W        W40904  15.476  21.494   8.302  0.1471 -0.2538 -0.0663
    1W        W40905   0.727  24.810   1.236 -0.2582  0.0296 -0.3404
    1W        W40906   0.570  27.741   7.987  0.2867  0.2182 -0.0918
    1W        W40907  12.750  19.353   0.595 -0.1033  0.0240 -0.0106
    1W        W40908  22.723   4.659   8.745 -0.0731  0.1349 -0.0909
    1W        W40909   4.475   8.200   0.782  0.2297  0.0628 -0.0589
    1W        W40910   9.575  23.390   7.294 -0.0216 -0.0396  0.5476
    1W        W40911  23.197  15.510   8.044  0.0840  0.2281 -0.1789
    1W        W40912   4.858  24.464   7.014  0.0864  0.2657 -0.1454
    1W        W40913  12.105  17.019   0.288 -0.1632  0.0533 -0.1608
    1W        W40914   8.290  12.402   8.691  0.2114  0.2503 -0.2002
    1W        W40915   1.946   8.134   9.432 -0.1206  0.3106 -0.2415
    1W        W40916  20.373  28.896   8.372 -0.1792 -0.4023  0.4456
    1W        W40917   1.525   4.393   8.063 -0.1401  0.2837 -0.0446
    1W        W40918   7.556   3.659   1.302 -0.1783 -0.1020 -0.1560
    1W        W40919  26.431  14.923   9.431  0.0555 -0.0435  0.2331
    1W        W40920   3.907  26.923   8.197 -0.1535  0.0626 -0.0469
    1W        W40921  18.158   8.835   2.143  0.3842 -0.0756 -0.0477
    1W        W40922   8.900   2.794   9.300  0.1102 -0.0975  0.1395
    1W        W40923   1.877   9.221   2.523  0.3470  0.2878 -0.0406
    1W        W40924  27.943  26.954   0.128  0.1817 -0.0601  0.1555
    1W        W40925  29.446   7.284   2.531  0.1871  0.0434 -0.0051
    1W        W40926  28.998  21.217   9.494 -0.0628 -0.0814 -0.1869
    1W        W40927  13.741   3.730   0.068  0.0822 -0.2063 -0.3618
    1W        W40928   7.810  18.540   8.344  0.2695  0.2044  0.2376
    1W        W40929  15.707  21.134   8.555  0.2906 -0.1128 -0.0356
    1W        W40930  15.729  17.665   8.216  0.0462  0.0439 -0.1408
    1W        W40931   4.782   6.067   0.312 -0.1646  0.0489  0.2613
    1W        W40932  28.425  21.204   0.764 -0.0573 -0.1605  0.0684
    1W        W40933  17.343  20.630   9.431  0.3498 -0.1101 -0.0936
    1W        W40934   9.349  14.687   1.628  0.1974  0.0297  0.0649
    1W        W40935  13.405  22.974   9.332  0.2478 -0.0992  0.2127
    1W        W40936  23.719  11.345   8.410 -0.2762  0.1389  0.1250
    1W        W40937  10.868  18.287   1.022  0.0325  0.1938 -0.0338
    1W        W40938   5.338  27.035   1.524 -0.2209 -0.2009 -0.2315
    1W        W40939   2.950  25.777   7.113 -0.2348  0.3727 -0.2649
    1W        W40940  26.328  14.695   8.027 -0.0161  0.0088 -0.0044
    1W        W40941  16.526   8.680   2.515  0.1916  0.0113  0.2118
    1W        W40942  15.141  25.675   2.553 -0.0350  0.1100 -0.0509
    1W        W40943   7.577  24.088   0.357 -0.3922 -0.2552  0.1727
    1W        W40944  22.231  14.747   9.189 -0.0309  0.0215  0.0531
    1W        W40945   0.634  29.477   0.236 -0.0330  0.0470 -0.1557
    1W        W40946   2.356  25.880   7.907  0.3088 -0.1503  0.0679
    1W        W40947  21.381  12.418   7.960 -0.1865  0.0027 -0.0318
    1W        W40948  19.712  16.064   9.042  0.3279  0.1632 -0.0954
    1W        W40949  16.318  24.650   0.774 -0.0559  0.4164  0.3731
    1W        W40950   1.175  10.596   0.024 -0.2739  0.0366  0.0912
    1W        W40951   5.668   0.187   8.764 -0.0802  0.2538 -0.0558
    1W        W40952  11.678  19.777   1.507 -0.0089  0.0416  0.2020
    1W        W40953   5.180   6.826   2.450  0.0546  0.0697 -0.1129
    1W        W40954  11.069   8.631   8.444 -0.3648 -0.2476  0.0366
    1W        W40955  29.255  15.683   7.765 -0.0187 -0.3476 -0.1152
    1W        W40956  21.780  26.028   7.149  0.2431  0.5046 -0.4175
    1W        W40957  18.053  14.819   7.904 -0.2239  0.1002  0.0102
    1W        W40958  12.266  17.313   0.648  0.5302 -0.0498 -0.0073
    1W        W40959  28.647  25.515   8.480  0.1899  0.0869 -0.1747
    1W        W40960   7.014  28.623   0.028  0.1754  0.1562 -0.0872
    1W        W40961   7.152  14.438   8.780 -0.1555 -0.1703  0.0092
    1W        W40962  10.701  19.996   2.373  0.1317  0.0171 -0.1640
    1W        W40963   0.372  11.081   6.671 -0.1407 -0.0165 -0.2845
    1W        W40964  22.986  23.833   0.281 -0.0431 -0.3247  0.0015
    1W        W40965  11.647  28.255   1.875 -0.2334 -0.2327  0.0942
    1W        W40966  27.911  11.514   7.231 -0.0540  0.1033 -0.2501
    1W        W40967  24.550  21.724   7.172  0.1194  0.0776  0.3200
    1W        W40968  26.244  16.699   6.810  0.0313  0.2104  0.1359
    1W        W40969   9.501  15.273   6.289 -0.1190 -0.0248  0.1973
    1W        W40970  15.105  17.879   6.319  0.0999  0.0916 -0.0921
    1W        W40971   3.423   5.426   0.071  0.0677 -0.0359 -0.0622
    1W        W40972  12.358  25.529   0.491 -0.0650 -0.0716 -0.1236
    1W        W40973  23.414  16.907   8.625  0.2255  0.3430 -0.3301
    1W        W40974  24.468   4.628   3.641 -0.0631  0.0913  0.0145
    1W        W40975  12.165   3.302   0.732 -0.1499  0.0713  0.3532
    1W        W40976  23.641  18.750   2.104  0.1475 -0.2009  0.1602
    1W        W40977   6.842   2.763   0.613  0.1870  0.1726 -0.1002
    1W        W40978   0.332  10.793   9.437  0.0344  0.0718 -0.0022
    1W        W40979  29.843  10.278   8.832  0.1451 -0.2781 -0.1498
    1W        W40980  26.105  24.271   9.116  0.1315  0.3119  0.1636
    1W        W40981  20.405  28.155   7.170  0.1445  0.1214  0.0506
    1W        W40982  23.534  18.111   8.020 -0.1689 -0.2863  0.0614
    1W        W40983  15.184  23.544   6.035  0.0685  0.2859  0.1446
    1W        W40984  10.588  10.423   7.528 -0.1920  0.2450  0.0886
    1W        W40985   4.623  23.983   7.593  0.2380  0.0274  0.2736
    1W        W40986   0.402  26.001   9.186 -0.0829 -0.2888 -0.0751
    1W        W40987   9.868  10.986   7.165 -0.0382  0.1895 -0.0251
    1W        W40988  22.982   6.613   2.862  0.0639 -0.2016  0.0284
    1W        W40989   7.151  12.260   1.220  0.0899  0.1925  0.0438
    1W        W40990   5.643  27.491   1.608  0.1058 -0.1475 -0.0580
    1W        W40991  28.377   9.715   6.818  0.0606  0.3763  0.1475
    1W        W40992   2.387  18.536   9.373 -0.5022  0.1125 -0.0332
    1W        W40993   2.323  28.304   7.866 -0.1171 -0.1950 -0.2676
    1W        W40994   7.078  10.419   0.940 -0.0865 -0.0209 -0.0524
    1W        W40995  20.881  14.082   0.684  0.0576  0.2366 -0.0948
    1W        W40996   1.155   0.299   9.341  0.0056 -0.0321  0.1435
    1W        W40997   6.239   5.551   2.342 -0.1128  0.1325  0.2299
    1W        W40998   2.050   5.351   1.139  0.0331 -0.1291 -0.1495
    1W        W40999  10.168  22.514   2.414  0.2346 -0.2731 -0.0775
    1W        W41000  25.157   3.977   7.623  0.1146 -0.0985  0.0918
    1W        W41001  24.217  25.410   3.155  0.0909 -0.1016 -0.1632
    1W        W41002  13.533  12.410   8.957  0.0061 -0.0878 -0.3336
    1W        W41003  26.302   2.997   8.904  0.2946 -0.1147 -0.3550
    1W        W41004  20.769  12.048   9.226 -0.3239 -0.1028  0.1813
    1W        W41005  20.627  10.503   2.495  0.2794 -0.0154  0.0770
    1W        W41006   7.410  14.069   8.353 -0.0749 -0.2613 -0.1212
    1W        W41007   7.102   6.879   1.823 -0.2359  0.3224 -0.1606
    1W        W41008  13.980   1.432   3.243 -0.1756  0.2736  0.0360
    1W        W41009  25.560   3.599   2.245 -0.2014  0.1163 -0.2081
    1W        W41010   9.149   3.458   2.051  0.0521 -0.2127 -0.2460
    1W        W41011   0.734   9.854   1.893  0.4864 -0.1747  0.0425
    1W        W41012   8.610  24.483   0.419 -0.0734 -0.0234 -0.1200
    1W        W41013  11.913  11.220   2.175  0.0679 -0.1097 -0.2897
    1W        W41014   5.951   4.594   2.022 -0.0473 -0.2345 -0.0953
    1W        W41015   4.945  27.282   9.230 -0.2936  0.0222  0.1357
    1W        W41016  24.775  26.596   6.387 -0.0300 -0.1681 -0.1437
    1W        W41017  12.993  23.879   0.806 -0.0796  0.2859  0.0704
    1W        W41018  16.233   9.350   7.414 -0.0891 -0.1150 -0.0739
    1W        W41019  27.557  26.267   7.931 -0.1192 -0.1185  0.2605
    1W        W41020  13.162   3.513   8.373  0.1076  0.0918  0.0162
    1W        W41021  19.135  27.261   1.541 -0.1829  0.0616  0.1074
    1W        W41022  25.547  13.899   8.508  0.0075 -0.0403 -0.1654
    1W        W41023   6.049  20.245   6.952  0.2379  0.1454 -0.0113
    1W        W41024  14.624  17.231   7.027 -0.1195  0.1623 -0.3970
    1W        W41025  13.962  27.052   8.398  0.3276 -0.1139 -0.1667
    1W        W41026  16.307   7.719   8.159  0.1936 -0.1561 -0.0545
    1W        W41027   8.120  24.880   7.704 -0.0458  0.0528 -0.0239
    1W        W41028  12.838   1.287   2.693  0.0740 -0.1762  0.0347
    1W        W41029   1.105   6.853   0.830 -0.0206 -0.2728 -0.1591
    1W        W41030  20.816  15.000   8.171  0.0886 -0.1691  0.0531
    1W        W41031  19.770  26.968   1.286  0.1625 -0.1701  0.0458
    1W        W41032   3.860  13.425   0.352  0.1207  0.0542 -0.1513
    1W        W41033   0.643  25.591   0.461  0.0395  0.1855  0.1844
    1W        W41034  24.109  20.050   2.136  0.1657  0.3162 -0.0932
    1W        W41035  22.721   5.778   0.748  0.2197 -0.0475 -0.0792
    1W        W41036   5.305  22.260   1.573 -0.2036  0.3649 -0.0204
    1W        W41037   7.888  20.136   6.374 -0.1433  0.0433 -0.0639
    1W        W41038   0.581  12.650   7.433 -0.2530 -0.1397  0.0965
    1W        W41039   6.856   3.986   1.565  0.2945 -0.0667 -0.1706
    1W        W41040   4.360   6.291   0.529  0.0771 -0.2828  0.0594
    1W        W41041  11.467  27.453   0.676 -0.1346 -0.0327  0.0530
    1W        W41042  25.320  24.654   8.524 -0.1998 -0.2771  0.1015
    1W        W41043  28.464   7.773   7.006 -0.0576 -0.0844  0.0102
    1W        W41044  27.817   5.332   7.438 -0.0406 -0.1853  0.1305
    1W        W41045   9.656  11.323   1.644  0.1357  0.2905  0.1208
    1W        W41046   8.684  23.769   5.296  0.3169 -0.0535 -0.2106
    1W        W41047  12.375  17.770   7.844 -0.1964 -0.2176  0.0091
    1W        W41048  17.081  16.199   6.549  0.2315  0.0125  0.0765
    1W        W41049  20.943   6.841   8.435 -0.1408  0.1937  0.2874
    1W        W41050  26.377  11.330   1.296  0.1414 -0.0751 -0.3251
    1W        W41051  23.622  17.498   8.989 -0.0977 -0.0688 -0.0311
    1W        W41052  20.353   1.878   8.507 -0.1627  0.2576  0.3173
    1W        W41053  28.139  22.107   7.167 -0.0272  0.0820  0.1187
    1W        W41054  24.115   6.766   9.019  0.1019  0.0753  0.1337
    1W        W41055   6.093  14.002   1.476 -0.5074  0.2111  0.1120
    1W        W41056  28.368  20.402   8.274 -0.0494  0.2595 -0.1939
    1W        W41057  24.223   5.643   3.025  0.3430  0.2993 -0.2417
    1W        W41058   0.589  21.480   6.960  0.1983  0.0993  0.1148
    1W        W41059  14.723  23.644   7.944  0.3009 -0.2737  0.1993
    1W        W41060   3.714  20.798   7.214 -0.0136 -0.0819  0.0286
    1W        W41061  17.754   2.674   2.393 -0.1879 -0.0165 -0.1257
    1W        W41062   6.975   9.582   2.264 -0.3309  0.0350 -0.2928
    1W        W41063  11.364  16.342   8.480  0.0049  0.0262 -0.0691
    1W        W41064   6.555  16.350   8.627  0.2733 -0.2754  0.0463
    1W        W41065  14.931  22.876   6.478  0.1159  0.1613  0.1143
    1W        W41066   3.300  10.572   1.148 -0.1198  0.0993  0.0354
    1W        W41067  16.403  26.047   8.915 -0.1199  0.2582 -0.1580
    1W        W41068  28.784  23.747   1.782 -0.1621 -0.1569  0.2608
    1W        W41069  29.770  10.125   0.757 -0.1642  0.4003 -0.1444
    1W        W41070  16.942   2.143   1.460 -0.0747  0.0574 -0.2318
    1W        W41071  12.389   8.117   8.307 -0.0825  0.3949  0.0511
    1W        W41072   7.924  16.431   6.769  0.3270  0.0628  0.3114
    1W        W41073   0.202  12.254   9.434 -0.0595 -0.1940 -0.2314
    1W        W41074  26.887  28.349   9.171 -0.1066 -0.2723 -0.0756
    1W        W41075   3.415   7.383   6.798 -0.0355  0.1263  0.1761
    1W        W41076  28.684  29.099   7.097  0.0419 -0.1686  0.0373
    1W        W41077  21.040   1.684   4.211  0.0536 -0.1283  0.0921
    1W        W41078   5.002  11.975   8.709  0.2078 -0.0271  0.0463
    1W        W41079  18.223   3.747   8.159 -0.3369  0.0980 -0.2434
    1W        W41080  12.901  10.569   1.680  0.0386  0.0899  0.2105
    1W        W41081  15.682   3.770   8.338  0.1047 -0.2509  0.0827
    1W        W41082  12.640  18.103   7.477 -0.5993  0.2730  0.0211
    1W        W41083   7.013   1.202   8.916  0.1018  0.2584 -0.1482
    1W        W41084  21.656  24.013   5.725  0.1668 -0.0278 -0.2107
    1W        W41085  10.856  23.384   7.232  0.0016  0.1460  0.0160
    1W        W41086  11.472   1.340   2.953  0.1752  0.1111  0.3293
    1W        W41087   8.502  24.692   7.382  0.1159  0.0686 -0.4187
    1W        W41088  24.523   4.826   0.696 -0.1775 -0.1378 -0.1862
    1W        W41089  24.510  22.876   2.359 -0.1622 -0.0217  0.1506
    1W        W41090  26.006   8.998   7.551 -0.0134 -0.1577  0.2236
    1W        W41091   9.138  28.705   0.486  0.0883  0.1170  0.3791
    1W        W41092  16.544   8.591   9.165 -0.1057  0.1718 -0.2795
    1W        W41093  12.590  27.301   8.419 -0.0248 -0.2381 -0.2403
    1W        W41094  16.466  16.815   6.206  0.0624  0.0903 -0.3304
    1W        W41095   4.004   2.806   9.126  0.0657  0.1850 -0.0651
    1W        W41096   8.054   1.990   8.111  0.0530 -0.1144  0.0830
    1W        W41097  18.787   0.471   1.299 -0.0221  0.0168  0.0552
    1W        W41098  13.198  16.731   1.378  0.1089 -0.2574 -0.0638
    1W        W41099   5.237   2.051   7.308 -0.0738  0.1483 -0.1470
    1W        W41100  26.287   9.620   1.156  0.0037 -0.1342 -0.1208
    1W        W41101  18.053   1.102   2.276  0.1158 -0.0939 -0.0871
    1W        W41102  17.283  25.180   1.131 -0.3820 -0.0381  0.0948
    1W        W41103  16.679  19.292   7.476  0.2854  0.1987 -0.1490
    1W        W41104   4.494   5.811   1.351  0.0419 -0.2928  0.4147
    1W        W41105  27.683  19.365   9.241  0.1273  0.0228 -0.0243
    1W        W41106  17.069  13.443   0.170 -0.0091 -0.3029 -0.2639
    1W        W41107  19.629   7.288   1.345 -0.1130  0.0257 -0.3140
    1W        W41108   7.393   2.122   2.067 -0.2093 -0.3398 -0.3801
    1W        W41109  12.588  15.304   8.303  0.4746  0.1071 -0.2776
    1W        W41110  24.346  10.349   8.268 -0.0484 -0.3628 -0.3365
    1W        W41111  13.172  25.050   7.271  0.1581  0.0854  0.0796
    1W        W41112  18.488   9.679   2.603 -0.3904 -0.0577  0.0488
    1W        W41113  10.208  17.251   8.136  0.0912 -0.1091 -0.2281
    1W        W41114  15.338  23.861   8.808  0.0604 -0.2709 -0.0622
    1W        W41115  26.830  18.971   2.591  0.2249 -0.0009  0.0601
    1W        W41116  29.615  13.944   1.807  0.2716  0.2277  0.0906
    1W        W41117   2.607  26.570   0.673 -0.4145 -0.2405 -0.2742
    1W        W41118  22.591   4.868   1.906 -0.1267 -0.1789  0.1638
    1W        W41119  25.598  27.135   7.080 -0.0666  0.2108 -0.0929
    1W        W41120   0.066  15.057   6.454  0.1575 -0.0098  0.1173
    1W        W41121  13.745  26.309   9.384  0.0760  0.0002 -0.0539
    1W        W41122   9.328   9.259   8.299 -0.0302 -0.1819  0.0593
    1W        W41123   9.658   1.374   1.381 -0.1768  0.0191 -0.2718
    1W        W41124  29.256  10.899   0.455  0.1216 -0.0844  0.2154
    1W        W41125  28.646  11.953   1.173  0.2129 -0.0092  0.1722
    1W        W41126   9.119  19.280   6.949  0.0382 -0.3796 -0.1263
    1W        W41127  25.055   1.596   2.955 -0.1200  0.0089  0.0415
    1W        W41128  14.528  11.106   2.182 -0.1498 -0.1115  0.4007
    1W        W41129   9.338  10.751   1.187 -0.0267  0.1209 -0.1185
    1W        W41130   2.853   6.721   0.345 -0.0541 -0.1871 -0.1070
    1W        W41131   4.432   6.432   8.455  0.2240  0.1213 -0.1185
    1W        W41132   2.511  10.376   8.346 -0.1993 -0.1968  0.2606
    1W        W41133  17.635  19.466   6.658  0.1967 -0.0079 -0.0171
    1W        W41134  13.045  18.984   1.455  0.2319  0.3727  0.2930
    1W        W41135  16.157   3.262   2.607  0.1469  0.2125  0.2299
    1W        W41136  22.435  14.359   1.866 -0.3286  0.0732 -0.0854
    1W        W41137  22.371   1.105   2.996  0.2053 -0.0494 -0.0702
    1W        W41138   3.184  12.294   8.311 -0.1734  0.3501 -0.1469
    1W        W41139  11.922  17.405   6.573 -0.2961 -0.0088 -0.2114
    1W        W41140   6.605  24.531   1.866  0.0508  0.2545 -0.0114
    1W        W41141  23.586   6.659   8.862  0.3638  0.0037 -0.0611
    1W        W41142  28.701  28.247   6.347  0.2556  0.2156 -0.1747
    1W        W41143  10.492  14.335   7.857 -0.0023  0.1518  0.0446
    1W        W41144  19.138   2.798   9.264  0.2116  0.0868  0.2862
    1W        W41145  20.945  16.585   8.072 -0.3289  0.2438 -0.1848
    1W        W41146  20.475  16.841   1.687  0.1440  0.1376  0.1060
    1W        W41147   4.717  17.515   0.912  0.1450  0.0535 -0.1683
    1W        W41148  27.444  10.708   7.271 -0.1437  0.1169 -0.3933
    1W        W41149  13.930  28.141   8.519  0.2268 -0.0083 -0.1397
    1W        W41150   1.147  13.540   1.408 -0.1371 -0.1061 -0.0245
    1W        W41151   5.140  14.452   7.885  0.0595 -0.0028  0.0248
    1W        W41152  10.491   8.732   7.954  0.0945 -0.1267 -0.0952
    1W        W41153  26.778   2.758   7.237 -0.2335 -0.1410 -0.1278
    1W        W41154  23.932  10.320   2.438 -0.4913 -0.0954  0.0415
    1W        W41155  22.534  20.662   0.006  0.0179 -0.1104 -0.3401
    1W        W41156  10.083  23.058   7.503 -0.3763  0.0606  0.0457
    1W        W41157  16.135  23.333   7.692  0.1348 -0.4116  0.2527
    1W        W41158  26.937  19.980   8.881  0.3318 -0.1042 -0.1789
    1W        W41159   5.428  15.003   6.658 -0.1879 -0.0152 -0.0559
    1W        W41160  27.779  26.444   2.093  0.4853  0.0076  0.2299
    1W        W41161  19.569  16.109   8.075 -0.2937 -0.1093  0.1537
    1W        W41162  16.761  26.279   1.181 -0.1304  0.0330 -0.1807
    1W        W41163  15.877   7.126   0.782 -0.1879 -0.0804  0.1159
    1W        W41164  10.120   1.880   9.190  0.2510 -0.2871  0.0756
    1W        W41165  22.832   5.159   8.578 -0.0240  0.2295  0.2527
    1W        W41166   8.474   8.948   1.504 -0.2230 -0.0897 -0.0266
    1W        W41167   2.095  12.794   1.275 -0.1414 -0.1731 -0.0173
    1W        W41168  16.766  11.770   1.789  0.2056  0.0406 -0.0547
    1W        W41169   7.394   0.706   7.918  0.1499  0.0629 -0.0454
    1W        W41170  29.080  13.276   1.385  0.1751  0.4027  0.0756
    1W        W41171   1.355   1.550   9.005  0.1205 -0.0621 -0.1493
    1W        W41172   9.128  11.422   5.851 -0.1390  0.2215  0.1149
    1W        W41173  18.532  14.477   1.472 -0.1497  0.0556 -0.0544
    1W        W41174  16.424   1.470   3.053  0.1679 -0.1921 -0.2325
    1W        W41175  23.775  21.789   2.501 -0.0130  0.0747 -0.2263
    1W        W41176  22.330   3.786   1.194  0.1308  0.1723  0.2529
    1W        W41177  13.434  20.961   1.100 -0.1095  0.0942  0.0037
    1W        W41178   7.245  27.332   1.862 -0.0921 -0.0124  0.3761
    1W        W41179  29.097  18.688   6.696  0.0948  0.2494 -0.0330
    1W        W41180  23.129   0.741   8.702  0.0363 -0.0572 -0.0046
    1W        W41181   5.572  16.970   2.279 -0.0743 -0.0827  0.2468
    1W        W41182   5.291  13.454   6.531  0.2150 -0.2027  0.2302
    1W        W41183   1.352  21.454   7.104 -0.3184 -0.2175 -0.0326
    1W        W41184  28.340  16.082   0.397 -0.0792 -0.0131  0.0656
    1W        W41185   2.981  18.816   1.735 -0.2579 -0.2328  0.0907
    1W        W41186  27.574   6.434   1.234  0.1492 -0.0189 -0.0023
    1W        W41187  21.305  25.686   2.125 -0.0423 -0.1968 -0.1421
    1W        W41188  23.504   2.861   7.874 -0.2218 -0.0956 -0.2432
    1W        W41189  12.249  16.389   6.075  0.0175  0.5101  0.1647
    1W        W41190  16.032  13.410   8.917  0.0290 -0.0426 -0.1591
    1W        W41191   0.933   5.388   2.257 -0.3733 -0.0488 -0.0101
    1W        W41192   6.972  20.100   6.992 -0.1580 -0.5372 -0.0105
    1W        W41193   9.509   5.712   9.368  0.1140  0.0927  0.2128
    1W        W41194  17.846  21.746   8.818  0.2055 -0.3316  0.2391
    1W        W41195   4.200  13.693   1.162  0.0709  0.0802 -0.1286
    1W        W41196   4.915   1.823   2.310  0.6509 -0.2090 -0.1032
    1W        W41197   9.878  13.922   0.619 -0.2550 -0.4384 -0.1968
    1W        W41198  18.020   7.270   0.095 -0.0602  0.0392  0.0017
    1W        W41199  13.675  14.690   9.425 -0.0745  0.2127 -0.1548
    1W        W41200   4.918  28.843   7.697  0.1604 -0.0037 -0.2967
    1W        W41201  19.298   4.656   3.156  0.1170 -0.0565  0.0383
    1W        W41202  24.099  17.035   7.256 -0.1875  0.0295 -0.3670
    1W        W41203  19.496  19.121   5.817  0.2247 -0.1520 -0.0985
    1W        W41204   8.724  18.536   0.923  0.1013 -0.1268 -0.2723
    1W        W41205  13.011  22.218   5.067 -0.0201  0.2610 -0.0515
    1W        W41206  28.372  17.916   2.733 -0.1198  0.1818 -0.0756
    1W        W41207  19.913  26.066   1.135  0.2564  0.2557 -0.2546
    1W        W41208  14.020  18.512   5.785 -0.0090  0.1818  0.0257
    1W        W41209   8.299  22.932   1.321  0.3358  0.0438 -0.0804
    1W        W41210  12.935   5.624   8.864  0.2318  0.0609 -0.1414
    1W        W41211   5.199  10.203   8.326 -0.1320 -0.0376  0.3376
    1W        W41212  27.190   5.634   1.131  0.0441 -0.0453 -0.2520
    1W        W41213   2.019  20.119   8.827  0.0206  0.1626 -0.1167
    1W        W41214  29.077  28.108   8.120  0.1074 -0.0013  0.0184
    1W        W41215   2.631  12.782   1.405 -0.0161 -0.4496  0.0579
    1W        W41216   9.506   4.386   7.766 -0.0382 -0.1227 -0.0350
    1W        W41217  13.519  16.154   1.503 -0.0257  0.0269 -0.3485
    1W        W41218  20.601  24.482   6.517  0.1532  0.0103 -0.1178
    1W        W41219   7.663  22.847   9.333  0.3182 -0.1215  0.2558
    1W        W41220   2.713   5.446   1.923 -0.1133 -0.0921  0.0073
    1W        W41221   4.613  15.456   3.094 -0.2228  0.0318  0.0708
    1W        W41222  19.811  13.491   8.641 -0.0212  0.0456 -0.0385
    1W        W41223  14.669  28.142   0.384 -0.0611  0.1614  0.0098
    1W        W41224   7.410  28.014   9.266 -0.1233 -0.1110 -0.1418
    1W        W41225  27.325  20.548   1.542 -0.4342 -0.0153 -0.0682
    1W        W41226  13.886  15.040   7.665  0.2851 -0.0685 -0.4335
    1W        W41227  26.998   7.882   6.713 -0.1141  0.0728 -0.0195
    1W        W41228  23.415  28.043   1.471 -0.1538 -0.3373  0.0745
    1W        W41229  17.001   4.441   1.210 -0.0757  0.0327 -0.0764
    1W        W41230  25.806   5.817   1.476 -0.0946 -0.0040  0.0447
    1W        W41231  25.543  13.708   7.516  0.1488 -0.0320  0.1023
    1W        W41232  16.612   8.794   0.517  0.0701 -0.0145  0.3589
    1W        W41233  17.421  17.356   7.091  0.0677 -0.0849  0.3116
    1W        W41234   4.678   2.691   9.356 -0.1933 -0.3153  0.1925
    1W        W41235  27.133   6.094   1.930 -0.1961 -0.1288  0.1335
    1W        W41236  25.008   0.877   1.479 -0.3914  0.0167 -0.1700
    1W        W41237   7.722  28.602   7.382 -0.5070 -0.2362 -0.0524
    1W        W41238   0.207   1.423   0.935  0.0765  0.3241  0.5856
    1W        W41239   5.458  15.421   8.994  0.0516  0.2263 -0.2790
    1W        W41240  17.076  14.807   6.455 -0.0902  0.1985  0.0628
    1W        W41241  27.440  16.620   1.493 -0.3443  0.0350 -0.2013
    1W        W41242  22.894   6.351   9.494 -0.1084  0.0185  0.4091
    1W        W41243  10.675   5.095   8.422 -0.0850 -0.1789  0.0562
    1W        W41244  18.381   4.913   8.276  0.1627  0.2956  0.2844
    1W        W41245  12.395  23.859   0.942 -0.0491 -0.0601 -0.0632
    1W        W41246  19.429   1.082   9.344 -0.2273  0.2893 -0.2096
    1W        W41247  20.752   2.396   0.647 -0.4073 -0.0761  0.0929
    1W        W41248  26.286   5.919   8.174  0.2446  0.0148 -0.1450
    1W        W41249  24.446  16.564   1.530 -0.0166  0.0473 -0.0557
    1W        W41250   2.697  28.752   0.943  0.2486 -0.0944 -0.1128
    1W        W41251  24.952   7.769   8.279 -0.1469 -0.0663  0.1022
    1W        W41252   0.766  17.771   1.765  0.0970 -0.1035  0.1260
    1W        W41253  11.774  19.732   0.190  0.2114  0.1297  0.0170
    1W        W41254  10.509   8.268   3.190 -0.1679 -0.3543 -0.0234
    1W        W41255   7.791  14.063   7.205  0.0126 -0.2438  0.0440
    1W        W41256  20.005  21.370   5.947 -0.0706  0.0023  0.4426
    1W        W41257  14.367  24.678   8.262 -0.1226 -0.0552 -0.1276
    1W        W41258  23.906   4.328   7.598  0.0929  0.0332  0.1469
    1W        W41259  22.307  21.996   6.293  0.1428  0.2396 -0.0713
    1W        W41260  13.311  23.864   7.845 -0.2639 -0.0384  0.0143
    1W        W41261  28.884   4.944   9.023  0.1991  0.2235 -0.1099
    1W        W41262   8.232   6.710   1.310  0.0959  0.0799  0.1173
    1W        W41263  11.024   0.477   2.837 -0.2213 -0.0398 -0.1524
    1W        W41264   3.672   3.517   8.500  0.2354  0.2460 -0.0098
    1W        W41265   1.799  23.217   6.457  0.2792 -0.0141  0.2393
    1W        W41266  26.247   1.893   0.556  0.3341  0.5168 -0.1837
    1W        W41267  29.713  14.793   6.818  0.1322  0.1271  0.3024
    1W        W41268  22.043  26.563   1.492 -0.0765 -0.1095 -0.1626
    1W        W41269  12.964   7.525   2.905  0.0193  0.2343  0.2659
    1W        W41270   4.544   7.124   7.967 -0.2306 -0.4224  0.0643
    1W        W41271  27.333   1.307   2.488  0.1140  0.0951 -0.0772
    1W        W41272   1.618  13.688   1.833  0.3467  0.0944 -0.1196
    1W        W41273   6.514  24.381   0.371 -0.3450  0.0361 -0.1697
    1W        W41274  18.419  22.442   0.348  0.2520 -0.0505 -0.2552
    1W        W41275  24.857  10.833   1.096 -0.2459 -0.1039 -0.0501
    1W        W41276  10.380  21.322   9.215 -0.3290 -0.0681 -0.1343
    1W        W41277  27.757  11.233   1.585 -0.0252 -0.0630  0.1340
    1W        W41278  10.922  24.153   7.683 -0.1620 -0.1870 -0.0498
    1W        W41279  25.546   3.159   1.100 -0.1577 -0.1057 -0.2445
    1W        W41280  28.014  26.361   0.684 -0.0355 -0.3322  0.2094
    1W        W41281   4.461   9.939   8.682  0.2851  0.2259 -0.4145
    1W        W41282  21.048  24.969   8.156  0.0411 -0.0034 -0.0183
    1W        W41283  11.992   8.294   0.085  0.1288 -0.1534  0.0982
    1W        W41284   9.722   0.569   3.133 -0.0170 -0.1432 -0.1457
    1W        W41285  24.119  20.602   1.320  0.0019 -0.1735  0.0436
    1W        W41286  23.503   0.321   8.629  0.3827  0.0767  0.0853
    1W        W41287  18.943  20.299   9.518 -0.0598 -0.1098  0.0774
    1W        W41288  15.665  12.583   9.052  0.2423  0.0466 -0.2544
    1W        W41289   8.206  24.558   5.521 -0.0048 -0.2863 -0.3470
    1W        W41290  11.872   3.795   2.799 -0.2499  0.0732  0.4178
    1W        W41291  11.160  18.021   0.597  0.1809  0.0965  0.1259
    1W        W41292  11.823  27.613   1.004  0.0210 -0.0937 -0.2658
    1W        W41293  29.250  27.004   6.953  0.0153  0.0411  0.1421
    1W        W41294   4.770  18.999   7.471  0.1919 -0.2121 -0.0255
    1W        W41295  26.185  11.588   8.817  0.3197 -0.2257 -0.2202
    1W        W41296   8.452   5.381   9.133  0.0189 -0.2060 -0.3156
    1W        W41297  22.383  20.690   0.910 -0.2008  0.0561 -0.0808
    1W        W41298  11.132   0.917   9.518  0.3186  0.2189  0.0826
    1W        W41299  23.581  13.610   9.160  0.0884  0.1807  0.1986
    1W        W41300   2.322  22.151   1.036  0.2971  0.2910 -0.0525
    1W        W41301   9.416  11.599   9.252  0.0739  0.0647  0.3700
    1W        W41302   2.749  19.348   7.051  0.0891 -0.3167  0.0291
    1W        W41303  16.908  15.241   1.981 -0.0973  0.0706 -0.1847
    1W        W41304  12.308   6.940   1.634 -0.0911 -0.2634  0.1177
    1W        W41305   6.886  19.523   6.792  0.1265 -0.4304 -0.2072
    1W        W41306  28.832  15.057   2.473 -0.0503 -0.0393 -0.0740
    1W        W41307  10.836  21.695   5.053 -0.0295 -0.0586 -0.2279
    1W        W41308  15.378  24.079   0.129 -0.1658  0.4110 -0.1147
    1W        W41309  19.443  15.896   0.872  0.2763  0.3772 -0.0663
    1W        W41310  18.610   2.617   2.176 -0.1135 -0.1126 -0.1999
    1W        W41311  14.517  20.932   8.773  0.2063 -0.3600 -0.3055
    1W        W41312   1.420   3.239   1.484 -0.1014 -0.0677 -0.2257
    1W        W41313  28.423  13.861   1.766  0.0892  0.0050 -0.0210
    1W        W41314   2.662   6.285   2.976  0.0786  0.0468  0.0037
    1W        W41315   5.025  21.263   7.339  0.0415  0.0749  0.1949
    1W        W41316  22.099  25.538   7.403 -0.0209  0.0926 -0.1315
    1W        W41317   3.551  12.664   8.940  0.0077 -0.1551  0.0978
    1W        W41318  10.140  25.239   8.512 -0.1616  0.0280  0.2012
    1W        W41319  15.001   2.465   1.157 -0.1600  0.1172  0.3011
    1W        W41320  16.425   6.401   9.363  0.0236 -0.0452  0.2396
    1W        W41321  10.606  20.134   6.964  0.2678  0.0564 -0.0759
    1W        W41322  15.521  28.723   2.114 -0.0092  0.0649 -0.1351
    1W        W41323   6.789  26.655   8.149  0.2843 -0.2204  0.0601
    1W        W41324  15.025   5.972   0.154 -0.0603  0.0387  0.0705
    1W        W41325   1.587  19.569   6.693  0.1222 -0.0486 -0.0341
    1W        W41326  22.597  23.507   2.639 -0.0256  0.0870  0.4130
    1W        W41327  16.636   4.422   8.325 -0.1382  0.0147  0.1095
    1W        W41328  17.316  15.310   2.276  0.3526 -0.1359 -0.1785
    1W        W41329  23.993  25.565   7.398 -0.2652  0.1406  0.0156
    1W        W41330  11.985  13.409   0.712  0.0818 -0.0354  0.1750
    1W        W41331   7.275   3.062   0.700 -0.3536  0.1714 -0.0287
    1W        W41332  21.696   4.632   1.981 -0.1238 -0.2345 -0.2025
    1W        W41333  18.911   9.412   8.628  0.0243 -0.3044 -0.1850
    1W        W41334   6.362  16.244   0.497  0.0941 -0.0667 -0.2776
    1W        W41335  24.522  26.344   0.811  0.0549  0.1240 -0.0192
    1W        W41336   1.748  18.547   0.571  0.0628 -0.1399 -0.2193
    1W        W41337   6.207  15.051   8.691 -0.1850 -0.0009  0.0922
    1W        W41338  23.101   6.077   1.011  0.1706 -0.0235 -0.0305
    1W        W41339   7.156  10.965   9.397  0.1216 -0.2264 -0.2030
    1W        W41340   8.582  28.385   6.839  0.0237  0.0572 -0.3340
    1W        W41341  26.367   9.222   7.305  0.0727 -0.0890  0.1858
    1W        W41342   4.601   7.143   0.949 -0.0787  0.2276 -0.0592
    1W        W41343  12.513  23.782   1.572 -0.1406  0.0185  0.1058
    1W        W41344  11.385   1.466   6.949  0.0145 -0.0733  0.1217
    1W        W41345  10.360  18.675   2.203  0.2363 -0.0069 -0.0218
    1W        W41346  26.065  19.488   8.656 -0.0096 -0.0393  0.1613
    1W        W41347  29.784  22.537   6.600 -0.1313  0.1544 -0.1486
    1W        W41348   3.601  17.783   1.186  0.0552 -0.0085 -0.0715
    1W        W41349  15.928  10.704   9.454 -0.2161  0.0649 -0.0544
    1W        W41350   0.942  24.712   7.220 -0.3026  0.2357 -0.0656
    1W        W41351   1.328  24.488   8.799  0.1419 -0.0234  0.0314
    1W        W41352   4.396  23.391   7.549 -0.2516  0.2020 -0.1121
    1W        W41353  28.617  21.704   8.706  0.2324 -0.0953 -0.0092
    1W        W41354  10.381  21.186   8.662 -0.2075  0.2034 -0.1786
    1W        W41355   4.430  25.939   0.813  0.2022 -0.1955  0.2635
    1W        W41356  28.858  15.371   7.058 -0.0633  0.1536  0.0583
    1W        W41357   9.342  12.959   0.538 -0.2724  0.0179  0.0356
    1W        W41358  18.896   7.864   1.911  0.0292 -0.2191  0.2451
    1W        W41359  15.232   2.756   7.580  0.0913 -0.1161  0.1147
    1W        W41360  21.232  14.874   1.712 -0.2578  0.0242  0.0280
    1W        W41361  29.200  27.152   6.468 -0.1997  0.2241 -0.2549
    1W        W41362  18.866  14.895   1.831  0.1773  0.0848 -0.0342
    1W        W41363  22.422  23.589   6.669  0.3561 -0.0256 -0.1037
    1W        W41364   3.342  11.197   9.349  0.0778 -0.3494  0.3615
    1W        W41365  14.320   7.399   8.798  0.1017  0.0284 -0.1986
    1W        W41366  28.570  16.170   7.207  0.2049 -0.2130  0.0029
    1W        W41367  19.482  15.384   0.653 -0.3367 -0.0975  0.1515
    1W        W41368   6.478   1.036   6.502 -0.1709  0.0755 -0.0911
    1W        W41369  21.188  12.274   1.620 -0.0600  0.4981  0.2355
    1W        W41370  20.263  14.047   1.107  0.0427 -0.3004 -0.1194
    1W        W41371   4.841  24.242   1.126  0.3560  0.2415  0.1449
    1W        W41372  23.308  19.731   0.655  0.0818  0.0664 -0.1577
    1W        W41373  21.273  14.037   6.967 -0.3096  0.0547  0.0292
    1W        W41374   1.476  24.388   1.610  0.0849  0.3030  0.2152
    1W        W41375  27.623  19.630   0.707  0.0817  0.0210 -0.3671
    1W        W41376  16.634  20.058   6.935 -0.2629  0.1009  0.0865
    1W        W41377  12.337   4.195   1.919 -0.0686  0.1643 -0.0554
    1W        W41378  25.318   0.961   8.344  0.0164  0.3701  0.4823
    1W        W41379   4.404  21.090   6.847  0.0202 -0.1148  0.2037
    1W        W41380  19.028  28.584   3.383 -0.0587  0.0932  0.1819
    1W        W41381   6.559   8.187   1.313  0.1195  0.2605 -0.0440
    1W        W41382   2.875  10.917   9.500  0.2313  0.0783  0.0803
    1W        W41383   4.469   0.627   8.615 -0.1057 -0.0500 -0.0595
    1W        W41384   0.354  28.353   6.639  0.1186  0.0467 -0.2349
    1W        W41385  22.742  28.559   2.083  0.2104 -0.0540  0.0897
    1W        W41386   2.367  22.265   1.843 -0.0456  0.2482 -0.0437
    1W        W41387   8.707   7.483   7.441  0.1007 -0.3806 -0.0501
    1W        W41388  23.339  15.267   1.691 -0.1025 -0.5752 -0.2402
    1W        W41389  28.005   9.811   3.080 -0.3089 -0.2345 -0.1438
    1W        W41390  28.127  21.420   6.503 -0.1136 -0.0380 -0.1696
    1W        W41391   3.927  10.633   8.265 -0.0555  0.1033 -0.1052
    1W        W41392  15.979   4.551   2.763 -0.3041 -0.1176  0.3986
    1W        W41393  28.066  17.711   3.051  0.1273 -0.1161  0.1572
    1W        W41394  29.777   8.439   8.607  0.1992  0.0967  0.2279
    1W        W41395   7.413  13.774   8.881 -0.2007 -0.1631 -0.1764
    1W        W41396   3.845  11.468   7.446 -0.1412 -0.1284  0.1733
    1W        W41397  16.107  18.730   6.114  0.1024 -0.0786 -0.1620
    1W        W41398  18.889  27.481   6.640 -0.1933 -0.2338  0.0473
    1W        W41399  14.772  27.393   7.501  0.1999  0.0782 -0.2306
    1W        W41400  15.266  15.388   0.469  0.0315 -0.2145  0.0104
    1W        W41401   2.328   9.784   7.531 -0.1956 -0.0377 -0.1832
    1W        W41402  27.935   3.971   2.250 -0.2042  0.0601 -0.2613
    1W        W41403  10.788  29.373   0.133  0.1030 -0.0443 -0.0195
    1W        W41404   9.681   2.492   1.436 -0.0660 -0.1523 -0.0074
    1W        W41405   0.238  29.553   7.857 -0.1316 -0.0308 -0.0612
    1W        W41406  29.659  22.146   1.994  0.2910  0.1608  0.1265
    1W        W41407   5.041  10.835   6.294 -0.0143  0.0534 -0.0464
    1W        W41408   7.071   8.640   6.277 -0.1484 -0.1994  0.2107
    1W        W41409   8.784  18.331   2.200  0.3370 -0.0431  0.0548
    1W        W41410  28.324   2.665   6.429  0.0061  0.2919  0.1683
    1W        W41411  19.430   5.111   1.718  0.0673 -0.2325  0.0075
    1W        W41412  26.397  15.391   0.175  0.0363 -0.0667 -0.0268
    1W        W41413  22.055  24.385   3.042  0.1701 -0.1364  0.1379
    1W        W41414  21.877   5.489   4.132  0.0959 -0.1328  0.0041
    1W        W41415  10.799  26.103   0.484  0.2238  0.1401 -0.1527
    1W        W41416   9.742   6.599   8.388 -0.0459  0.0935 -0.2756
    1W        W41417  12.130  28.865   8.908  0.2430 -0.2256 -0.2742
    1W        W41418  11.790  23.589   0.320 -0.1453 -0.0193  0.1358
    1W        W41419  14.288  20.265   7.328 -0.2376  0.1460  0.2570
    1W        W41420  12.023  11.863   6.149 -0.0500 -0.3246 -0.0445
    1W        W41421   8.675   6.908   1.216  0.3477 -0.0084  0.0777
    1W        W41422   7.337  24.190   1.831 -0.0356 -0.0296  0.0957
    1W        W41423  15.191   1.998   1.301 -0.1467  0.2209  0.0223
    1W        W41424  20.734   7.904   0.315  0.1805 -0.0595  0.3096
    1W        W41425  13.665  20.379   1.888  0.2061  0.0144 -0.1660
    1W        W41426  12.780  21.411   0.849 -0.1968  0.0173  0.3700
    1W        W41427  14.803   1.752   1.880  0.2168 -0.0117 -0.0603
    1W        W41428  12.191  14.228   0.128 -0.2712 -0.2532  0.1681
    1W        W41429  27.566   8.226   8.936  0.1340 -0.2930 -0.2738
    1W        W41430  23.566   7.791   1.127 -0.1731  0.0070  0.1008
    1W        W41431   9.953  10.853   6.679  0.1450  0.0563  0.4641
    1W        W41432   4.817  11.231   1.351  0.0948  0.0309 -0.1278
    1W        W41433  29.011  27.463   2.845  0.1383  0.0075  0.1087
    1W        W41434   0.944   5.207   0.450  0.3101  0.3543  0.3319
    1W        W41435  21.192  16.971   0.473 -0.0362  0.2547 -0.2816
    1W        W41436  27.668  25.087   0.617  0.3295 -0.1751  0.0816
    1W        W41437   9.263  22.265   0.701  0.1824 -0.0856 -0.1512
    1W        W41438   8.546  21.550   1.727 -0.0878  0.2347  0.0038
    1W        W41439   0.159  28.200   8.217 -0.1572 -0.3029  0.0346
    1W        W41440  18.932  23.171   5.598 -0.3791 -0.0701 -0.1998
    1W        W41441   5.804  26.881   7.911  0.0585  0.2520  0.1907
    1W        W41442  29.046  20.260   0.300  0.0649 -0.0687 -0.3053
    1W        W41443  16.337   8.932   9.490 -0.4766 -0.3176 -0.5161
    1W        W41444  28.137   9.367   2.839 -0.0828  0.0342 -0.1516
    1W        W41445   4.729  13.870   1.381  0.0745 -0.3633  0.0017
    1W        W41446  12.784   2.741   3.944  0.4582 -0.2646 -0.0017
    1W        W41447  28.240  25.316   8.277  0.1224 -0.1432 -0.0722
    1W        W41448  10.947   1.933   1.919  0.0389 -0.2424  0.0499
    1W        W41449  22.493  10.854   8.709 -0.2264 -0.0830 -0.1745
    1W        W41450   9.539   1.900   1.463  0.1624 -0.0023 -0.0222
    1W        W41451  19.447  15.473   6.670 -0.0738  0.3124 -0.0170
    1W        W41452   3.877  22.299   1.551  0.0252 -0.0180 -0.1374
    1W        W41453   6.280   1.638   8.388 -0.3788  0.1242  0.1666
    1W        W41454  12.415  12.909   1.336  0.0785  0.0226  0.2490
    1W        W41455  28.671   3.535   8.357  0.0334 -0.2958 -0.0640
    1W        W41456   9.508  12.184   2.349 -0.1882 -0.0410  0.2265
    1W        W41457  16.359  25.702   8.592  0.2106 -0.1171  0.2898
    1W        W41458  29.388  14.875   2.955 -0.0051  0.1269 -0.0141
    1W        W41459  10.398   0.010   7.185  0.2355 -0.3197 -0.0590
    1W        W41460  16.908  15.729   8.831 -0.0370 -0.1798 -0.1354
    1W        W41461   3.212  18.613   7.577 -0.0310 -0.0743  0.1839
    1W        W41462   8.105  28.909   7.567  0.0186 -0.1707  0.3049
    1W        W41463  27.121  27.001   1.495 -0.1772  0.1904 -0.2014
    1W        W41464   0.339   9.723   1.136  0.0843 -0.1643 -0.0808
    1W        W41465   8.740  23.430   0.805 -0.1509 -0.0662  0.0397
    1W        W41466  10.113  18.894   7.797  0.1054 -0.1541 -0.0339
    1W        W41467  13.954   5.547   7.990 -0.1905  0.1349 -0.1715
    1W        W41468   3.832   9.590   1.061  0.4084 -0.1066  0.0819
    1W        W41469  29.150  12.038   1.142 -0.0346  0.1207  0.3534
    1W        W41470  12.325  21.419   0.296  0.2871  0.2430 -0.0817
    1W        W41471   6.088   8.605   1.982  0.1143  0.1458  0.1362
    1W        W41472  17.788   4.730   1.470 -0.1194  0.0923  0.0592
    1W        W41473  18.586  25.657   8.467 -0.0807 -0.3050 -0.2470
    1W        W41474   9.173  24.181   0.310 -0.1056 -0.2190 -0.3070
    1W        W41475  21.534  17.300   6.750  0.1435  0.0806 -0.2517
    1W        W41476  17.551   4.304   0.879  0.1139  0.0563  0.0928
    1W        W41477  19.171   2.069   2.166 -0.3260 -0.0701 -0.0282
    1W        W41478  26.721  16.073   8.874  0.3154  0.1270 -0.2128
    1W        W41479  18.576   6.703   1.669  0.4112 -0.0642 -0.2757
    1W        W41480  27.969  25.744   7.282 -0.2261  0.0840  0.1436
    1W        W41481   4.393  27.415   0.262  0.2462 -0.2490  0.1671
    1W        W41482   8.840  19.348   0.593  0.1072  0.0142  0.0371
    1W        W41483  23.460  15.250   8.509  0.2899 -0.1313  0.1554
    1W        W41484  11.873  16.434   8.503  0.0532 -0.1059  0.1158
    1W        W41485   7.248  28.609   0.522 -0.1461 -0.2423  0.1694
    1W        W41486  11.212  28.484   2.440 -0.3067  0.1750 -0.1317
    1W        W41487  29.319  22.119   7.655  0.2764 -0.1485  0.4548
    1W        W41488  20.782  24.638   1.414  0.1812  0.1042 -0.0316
    1W        W41489  24.044  11.484   1.029 -0.0206 -0.0808  0.0744
    1W        W41490  18.932  23.061   9.377 -0.0226  0.2297 -0.4218
    1W        W41491  23.646  10.707   1.716 -0.0220  0.2302 -0.1552
    1W        W41492  21.356  28.045   2.716 -0.1861  0.0247  0.1298
    1W        W41493   2.349   6.469   2.109  0.0975 -0.2205  0.0320
    1W        W41494  22.337  18.387   8.576 -0.1949  0.1093 -0.2371
    1W        W41495   1.139  12.187   0.523  0.0423 -0.1388  0.4539
    1W        W41496   2.534  13.897   7.566  0.0756 -0.0240 -0.0877
    1W        W41497  16.327   8.072   8.892  0.2855  0.0545  0.0278
    1W        W41498  15.675  12.217   9.445 -0.2047 -0.0912  0.2080
    1W        W41499   1.514   8.361   0.675 -0.0607  0.0580  0.3567
    1W        W41500  10.512  16.158   0.225 -0.0648 -0.0082  0.1011
    1W        W41501  29.530  15.161   1.583 -0.0586 -0.1515 -0.2437
    1W        W41502   9.902  24.044   7.713 -0.0142  0.2001  0.0689
    1W        W41503  16.628   8.190   8.170 -0.1148 -0.1617  0.1012
    1W        W41504   0.069   4.728   0.900 -0.1047  0.1276  0.2327
    1W        W41505   6.356  13.492   7.784  0.0482 -0.2145  0.1601
    1W        W41506  22.435   8.963   0.543 -0.0180 -0.0601  0.1581
    1W        W41507   1.526   8.873   0.396 -0.0196 -0.0314 -0.0752
    1W        W41508  11.577  13.036   1.020  0.1018 -0.2900 -0.0020
    1W        W41509  26.077   6.155   1.804  0.0849  0.0735 -0.1621
    1W        W41510  23.025  16.075   2.358  0.1037 -0.0625 -0.0074
    1W        W41511  25.352  23.578   7.072  0.2166 -0.2394 -0.1406
    1W        W41512  25.693  12.290   0.363  0.1157  0.1769 -0.0824
    1W        W41513  12.994  16.985   8.071 -0.1213 -0.3553  0.1701
    1W        W41514  13.082   8.545   8.653  0.0970 -0.1152 -0.0276
    1W        W41515  12.191  21.667   8.927  0.1712 -0.0978 -0.1278
    1W        W41516  22.139   8.532   7.319  0.2484 -0.2162 -0.0328
    1W        W41517  29.084  18.038   8.796  0.0866  0.0241  0.1833
    1W        W41518  17.055  19.164   7.871  0.3344 -0.1922 -0.1307
    1W        W41519  21.328  15.938   8.892  0.0703 -0.2320 -0.1081
    1W        W41520  23.775   0.705   2.791  0.1519 -0.1336  0.0700
    1W        W41521  10.564  11.126   2.258 -0.0162 -0.2311  0.2030
    1W        W41522  29.501  13.760   2.275  0.3846 -0.0864 -0.0943
    1W        W41523  24.864   4.483   6.889  0.1538  0.2308 -0.1519
    1W        W41524  22.800   2.782   3.174 -0.4773 -0.2397 -0.0706
    1W        W41525  24.499  24.527   8.450  0.0572 -0.3263  0.2037
    1W        W41526  23.396   4.792   2.264  0.0096 -0.1056  0.1875
    1W        W41527  29.435   0.483   8.314 -0.0751  0.0139  0.1085
    1W        W41528  28.641  24.670   2.601  0.0596 -0.0372  0.3176
    1W        W41529  14.180  12.176   0.126 -0.3071 -0.2381  0.2286
    1W        W41530  16.922   1.709   0.376  0.2524 -0.2702  0.1432
    1W        W41531  24.652  26.507   3.184  0.0152 -0.1126  0.0334
    1W        W41532  10.319  16.553   9.484 -0.1784 -0.1134 -0.0453
    1W        W41533   2.369  12.146   1.714  0.0986  0.3498  0.0368
    1W        W41534   1.646  18.083   7.102  0.0544  0.0871  0.1898
    1W        W41535  21.543   1.448   8.570  0.0065  0.0867  0.1315
    1W        W41536   2.424  10.764   9.042 -0.3139  0.3172 -0.3360
    1W        W41537   8.046  13.377   8.352  0.3802 -0.3050  0.1185
    1W        W41538  21.480  27.536   7.613  0.1244  0.1310 -0.0270
    1W        W41539   1.129   5.967   8.932 -0.0758  0.1583 -0.3616
    1W        W41540  19.688   7.732   1.216  0.0700  0.0842  0.1368
    1W        W41541   3.257  21.322   2.399 -0.0226 -0.0948 -0.1163
    1W        W41542  29.111   2.024   2.767 -0.0994  0.1131 -0.2957
    1W        W41543  10.118  24.107   6.234  0.3034  0.0418 -0.1305
    1W        W41544   9.007  28.336   0.122 -0.0143 -0.3052  0.0290
    1W        W41545  24.970   8.616   7.504  0.0032 -0.3565  0.0068
    1W        W41546  20.155  27.565   2.418  0.1204  0.1212  0.0410
    1W        W41547  16.797  26.754   1.902  0.2141  0.0783  0.1777
    1W        W41548   3.574   2.005   7.465  0.2104  0.1719  0.0307
    1W        W41549  16.077  28.125   2.373  0.1470  0.2119  0.1066
    1W        W41550  17.886  19.165   0.253  0.0479  0.0517  0.0453
    1W        W41551   1.347   1.371   7.593 -0.1348  0.2658  0.0760
    1W        W41552   2.929   6.276   8.428 -0.1958 -0.4658 -0.1283
    1W        W41553  22.613   8.591   0.252 -0.2690 -0.2069 -0.2519
    1W        W41554   9.005  29.269   2.644  0.0426 -0.0134  0.1513
    1W        W41555  23.270   9.225   8.482  0.2060 -0.2198 -0.0451
    1W        W41556  11.221   7.551   7.217  0.4539  0.0636  0.0146
    1W        W41557   6.259  13.738   7.369  0.0353  0.0536  0.0775
    1W        W41558  13.057  27.039   7.564 -0.0307 -0.2350 -0.0383
    1W        W41559  14.007   1.716   9.331  0.0499 -0.0688  0.2931
    1W        W41560  25.185  11.066   0.004  0.0645 -0.0617 -0.1227
    1W        W41561  27.789  11.991   1.152 -0.1167 -0.1079 -0.3449
    1W        W41562   1.297  13.247   0.294  0.2153 -0.0673 -0.1699
    1W        W41563   7.982   8.174   2.523 -0.1339  0.0187  0.0452
    1W        W41564  16.076  24.159   1.668  0.2073  0.0331 -0.2560
    1W        W41565   3.547  11.446   9.012 -0.0648  0.2056  0.1990
    1W        W41566   5.602   8.088   7.317  0.0917 -0.5706 -0.0814
    1W        W41567  25.778   7.761   8.314  0.0325  0.1463  0.1633
    1W        W41568   8.096  13.070   6.016  0.2300 -0.2374 -0.3746
    1W        W41569  10.534  25.340   6.413  0.2577  0.1648  0.1438
    1W        W41570   3.165  16.974   6.426 -0.0932  0.0206 -0.0795
    1W        W41571   6.208   1.899   6.253  0.0232 -0.0069  0.0882
    1W        W41572   5.414  26.511   1.818  0.0613  0.1028 -0.1962
    1W        W41573  26.582  20.483   8.797 -0.0066  0.1688 -0.1750
    1W        W41574  15.902  19.162   0.108  0.1308  0.0681 -0.0019
    1W        W41575  16.427  27.735   1.378 -0.3191  0.1611 -0.0538
    1W        W41576   0.670   0.151   9.354 -0.0308 -0.1564  0.1134
    1W        W41577  16.028  20.099   7.917  0.1330  0.0190  0.0171
    1W        W41578  25.318   0.485   1.523 -0.2980 -0.0706 -0.1396
    1W        W41579  21.605   7.605   7.861  0.0205 -0.1078  0.1147
    1W        W41580  15.999  18.790   7.699  0.1308  0.0978 -0.1036
    1W        W41581   2.051  18.260   2.682  0.2023  0.0578 -0.1266
    1W        W41582  29.789  21.193   8.207  0.5693 -0.1153 -0.3689
    1W        W41583  10.511  27.264   0.052  0.0575  0.1213 -0.2870
    1W        W41584  27.848   6.526   7.546 -0.0278 -0.1775 -0.0565
    1W        W41585  13.741  20.070   5.705 -0.0731  0.2269 -0.0130
    1W        W41586  10.703   2.889   8.361 -0.2622  0.1390  0.0403
    1W        W41587  26.512  27.628   0.276  0.2639  0.0527 -0.0302
    1W        W41588  18.177  24.191   0.745  0.0061 -0.0963  0.1807
    1W        W41589  15.614  26.533   2.307  0.1639  0.3400 -0.0487
    1W        W41590  10.646   6.651   7.151 -0.2513 -0.0323 -0.1015
    1W        W41591   7.427  17.790   1.428 -0.0451  0.0819  0.3601
    1W        W41592   0.576  14.826   2.100  0.1688 -0.0095 -0.2268
    1W        W41593  29.593   0.985   8.782  0.0816  0.2163 -0.0459
    1W        W41594  14.985  22.801   7.995  0.0203 -0.1046 -0.0164
    1W        W41595  25.760   3.027   8.222 -0.2617 -0.1964  0.2325
    1W        W41596  21.160   3.923   8.716 -0.0237  0.3795 -0.1873
    1W        W41597  28.204  11.042   1.252 -0.0737 -0.1037  0.0862
    1W        W41598  18.962  26.136   9.220 -0.0158 -0.2652 -0.1148
    1W        W41599   5.946   5.722   1.398  0.1809  0.1538  0.1033
    1W        W41600  24.978  20.902   2.527  0.1436 -0.0004  0.0749
    1W        W41601  23.881  26.875   2.594 -0.2460 -0.0325  0.0834
    1W        W41602  18.034   3.491   0.311  0.4210 -0.1812  0.1269
    1W        W41603   7.348   9.431   0.879  0.0268  0.2020 -0.1313
    1W        W41604   4.890   8.769   8.910 -0.1891  0.0768  0.3039
    1W        W41605   5.929   9.055   2.197 -0.0536 -0.1749 -0.1139
    1W        W41606  12.429  29.506   0.151 -0.1143  0.0655  0.0711
    1W        W41607  17.573   3.917   3.801  0.0566  0.2219  0.1803
    1W        W41608  14.891  25.439   1.394 -0.0947  0.0092 -0.0839
    1W        W41609  23.585  16.314   8.174 -0.0879  0.2476 -0.0288
    1W        W41610   1.387  24.351   7.358 -0.0250 -0.0312  0.0928
    1W        W41611  23.850   2.719   1.219  0.1163  0.0082  0.2182
    1W        W41612   4.764  26.689   8.962 -0.0658  0.1344  0.1467
    1W        W41613  15.760  10.497   8.547 -0.0832 -0.0683  0.0570
    1W        W41614  10.722  22.725   7.916  0.1481 -0.0840  0.0029
    1W        W41615   6.423   5.953   1.556  0.0454 -0.2793 -0.0503
    1W        W41616  23.668   1.779   3.233 -0.2063  0.1029  0.1421
    1W        W41617  11.694  25.382   1.169 -0.3633 -0.0995 -0.3376
    1W        W41618   9.998   8.137   2.276 -0.1317  0.0313 -0.0800
    1W        W41619  22.860  12.186   8.002  0.0886  0.2092  0.1089
    1W        W41620   5.246  22.230   6.420  0.4006 -0.0164  0.1690
    1W        W41621   3.899   2.340   7.273  0.0471  0.2483  0.2681
    1W        W41622   6.214  17.579   7.313  0.1601 -0.0685  0.2436
    1W        W41623  23.783  29.729   7.734  0.0636 -0.1627  0.1487
    1W        W41624  26.486  27.681   7.664  0.0934  0.0209  0.2718
    1W        W41625   0.209  20.575   7.145  0.0113 -0.0652  0.0554
    1W        W41626  28.214   0.067   6.040 -0.0568  0.1895 -0.1756
    1W        W41627   4.734   3.998   2.407  0.2817  0.3757 -0.2506
    1W        W41628   5.085  16.076   7.282  0.0122  0.0209 -0.0025
    1W        W41629   1.493  19.387   7.601  0.1388  0.3038 -0.1109
    1W        W41630  20.011   4.048   4.109 -0.1116  0.2105 -0.0486
    1W        W41631   8.180  25.251   2.450  0.2342 -0.3639 -0.2221
    1W        W41632  15.756  29.480   7.784  0.1681 -0.2001 -0.2330
    1W        W41633  22.100  14.899   1.298 -0.2408 -0.0456 -0.0513
    1W        W41634   7.271  16.306   1.729  0.0081  0.1861 -0.0382
    1W        W41635  26.112  22.674   2.911 -0.2049 -0.0136  0.1051
    1W        W41636   6.400  12.177   9.074 -0.3476 -0.1540  0.4518
    1W        W41637   5.775  24.906   1.401 -0.1110  0.2864 -0.2894
    1W        W41638   9.837  12.210   6.566  0.2055 -0.0321  0.0270
    1W        W41639  25.010  14.340   8.061 -0.0465 -0.2288  0.1420
    1W        W41640   5.043   0.817   2.459  0.0514  0.1310 -0.2017
    1W        W41641   0.759  29.723   6.833 -0.1470  0.0977  0.1519
    1W        W41642   1.030  25.132   7.518 -0.0026 -0.6270  0.1239
    1W        W41643  20.214  20.109   1.416  0.1165 -0.1323 -0.0322
    1W        W41644   3.625   6.669   7.128  0.3605 -0.1812 -0.5121
    1W        W41645  26.183  16.772   1.388 -0.2072  0.1269 -0.0368
    1W        W41646  25.889  26.427   0.572 -0.0183 -0.3460 -0.0833
    1W        W41647  11.536  27.665   7.828  0.0311  0.0048  0.1416
    1W        W41648  12.198  19.053   6.836  0.1938 -0.2189  0.2022
    1W        W41649  29.046  24.286   2.583 -0.1394 -0.1645 -0.1887
    1W        W41650  29.596  29.846   8.094  0.0150  0.4182 -0.1757
    1W        W41651  29.483  19.469   8.659 -0.2046  0.4117  0.0796
    1W        W41652  29.350  18.409   6.343  0.0828 -0.2329 -0.2545
    1W        W41653   0.481   8.683   8.038 -0.0293 -0.1639  0.0418
    1W        W41654  14.363   9.240   1.061  0.2069 -0.0420  0.0858
    1W        W41655   0.614  28.854   6.555  0.0916 -0.0644 -0.2505
    1W        W41656  17.242  24.238   6.618  0.1679  0.0852  0.1025
    1W        W41657  14.207  29.591   8.527  0.0624  0.1981  0.1610
    1W        W41658  13.965  19.746   7.169  0.2474 -0.0383 -0.2749
    1W        W41659   6.916  28.233   0.344  0.1157  0.0896  0.0823
    1W        W41660   0.741   0.277   0.851  0.1045  0.0704  0.2093
    1W        W41661  14.845  27.898   9.453 -0.0004  0.1474  0.3953
    1W        W41662  12.615  10.997   0.621  0.0380 -0.0330  0.0822
    1W        W41663  29.038   6.668   3.209 -0.0409 -0.0624 -0.1496
    1W        W41664  19.573   7.891   7.639 -0.0491  0.1608 -0.1447
    1W        W41665  25.075   5.022   1.819  0.0977  0.2126 -0.1995
    1W        W41666  17.655   8.751   2.292  0.0281  0.0549  0.4250
    1W        W41667  23.367  23.845   3.049  0.3722 -0.0234 -0.1361
    1W        W41668   8.635  28.028   1.442  0.2885 -0.2058 -0.0879
    1W        W41669  18.879  19.506   0.910  0.2035 -0.1530 -0.1022
    1W        W41670  24.473  14.192   7.628 -0.1825 -0.2726 -0.1674
    1W        W41671   5.763  18.978   7.262  0.1245 -0.0161 -0.2540
    1W        W41672  11.032  11.438   8.080 -0.0318  0.4335  0.2759
    1W        W41673  16.809   6.527   2.104 -0.0279 -0.1426 -0.0250
    1W        W41674   8.816  15.830   1.916 -0.1389  0.1715  0.0008
    1W        W41675  12.472  28.693   8.197 -0.1158 -0.2718  0.2839
    1W        W41676  17.383   7.658   1.568 -0.0892 -0.0849 -0.4308
    1W        W41677   3.264  26.582   6.957  0.1471  0.3474  0.0353
    1W        W41678   0.139  19.394   8.727  0.0934 -0.0684 -0.3155
    1W        W41679  28.861   3.817   2.455 -0.0119 -0.2027 -0.1261
    1W        W41680  24.120   4.822   1.080 -0.2472 -0.0657 -0.1424
    1W        W41681  17.895  18.089   9.288 -0.0855  0.1561 -0.1493
    1W        W41682  20.634  27.262   9.019 -0.0808 -0.0540 -0.0908
    1W        W41683  25.501  18.423   1.567  0.2765  0.1298  0.3711
    1W        W41684   7.774   8.266   7.043 -0.0857 -0.1858 -0.0938
    1W        W41685   6.464  14.414   1.566 -0.0119 -0.2328  0.2432
    1W        W41686  21.882  23.846   1.807  0.2753  0.0007 -0.0730
    1W        W41687  19.151  28.687   9.167 -0.1749 -0.1711 -0.0517
    1W        W41688  17.750  27.441   8.868 -0.2248 -0.0719  0.2175
    1W        W41689  14.485   7.888   8.736 -0.2256  0.1120 -0.3251
    1W        W41690   8.100   3.738   6.791 -0.1159  0.2777 -0.0180
    1W        W41691  23.644   0.585   1.484  0.1693 -0.3275 -0.3314
    1W        W41692  26.346   0.603   6.943 -0.0849 -0.4513  0.0487
    1W        W41693  27.107   0.064   9.356  0.2556  0.2761 -0.1026
    1W        W41694   6.094  25.663   8.578  0.1570 -0.1304 -0.0624
    1W        W41695  23.567  16.376   6.482 -0.1278 -0.2708  0.0699
    1W        W41696   3.700   2.759   1.393 -0.1799  0.0524  0.1293
    1W        W41697  27.147   9.685   8.886 -0.1161  0.1459 -0.0660
    1W        W41698  26.933  26.194   1.353 -0.1826  0.1308  0.1360
    1W        W41699  10.855  26.606   6.684  0.1745  0.0563  0.2159
    1W        W41700   3.411   8.343   1.780  0.0732 -0.0861 -0.2707
    1W        W41701  19.807   1.948   1.570  0.1235  0.0471  0.1070
    1W        W41702  27.230   2.312   1.826 -0.1610 -0.2932  0.0931
    1W        W41703  15.955   8.531   2.629  0.1728 -0.3017  0.1115
    1W        W41704  11.263  13.709   8.245  0.2083 -0.3206 -0.2920
    1W        W41705   3.094  18.834   8.632  0.1483  0.3502  0.1654
    1W        W41706  15.995   8.653   7.694 -0.3345  0.0348 -0.1105
    1W        W41707  14.629   8.466   1.810  0.3028  0.1531 -0.1535
    1W        W41708   7.306  11.969   8.049  0.1177  0.1000 -0.3236
    1W        W41709   4.251  29.694   8.656  0.1513 -0.2543  0.1740
    1W        W41710   0.375  18.967   0.742  0.1474 -0.0791  0.2043
    1W        W41711   2.122   1.731   7.182  0.2209 -0.4120  0.0963
    1W        W41712   9.669  17.078   0.539 -0.0535  0.2193 -0.0459
    1W        W41713   9.347  19.221   0.193 -0.0591  0.0662 -0.4271
    1W        W41714  28.172  25.490   8.777 -0.0495  0.1916 -0.0274
    1W        W41715  23.464   8.817   3.359  0.0108  0.1417  0.1576
    1W        W41716  25.344   5.289   8.351  0.2465  0.0250  0.4059
    1W        W41717   7.994  21.766   6.176  0.0762 -0.0971  0.2724
    1W        W41718  19.754  24.453   8.136 -0.3181 -0.0552  0.0017
    1W        W41719   5.967   2.447   0.617  0.2317 -0.1707 -0.2578
    1W        W41720   4.284  23.058   0.763 -0.2437  0.4301 -0.0700
    1W        W41721   6.223   6.789   0.476 -0.1605  0.2828 -0.0978
    1W        W41722  28.592  22.417   0.421  0.1036  0.2439  0.1286
    1W        W41723   2.959  10.461   6.074 -0.3148  0.0106  0.1013
    1W        W41724   8.997  21.736   1.553 -0.4544  0.0582  0.0813
    1W        W41725  10.601   0.512   8.673 -0.2183 -0.0963  0.1838
    1W        W41726  26.015  24.140   0.414 -0.1121  0.0492 -0.2207
    1W        W41727  22.726  24.306   1.975  0.3105 -0.4572 -0.1923
    1W        W41728  13.179  20.796   5.817  0.2389  0.2085 -0.1120
    1W        W41729  28.513  19.910   1.839 -0.2670 -0.0785 -0.0588
    1W        W41730   3.103  29.359   6.086 -0.2539 -0.2641 -0.2650
    1W        W41731  28.468  20.188   2.297 -0.0267  0.0726 -0.3310
    1W        W41732  12.554  28.133   1.080 -0.0368 -0.0118  0.2117
    1W        W41733  27.046  11.047   8.972 -0.0621  0.0009 -0.0832
    1W        W41734  12.902  29.232   8.920  0.0835  0.0310  0.0166
    1W        W41735  18.397   2.458   1.357 -0.0255  0.0259  0.1685
    1W        W41736   1.351  14.130   1.962  0.0240  0.0768  0.0566
    1W        W41737  27.981   9.543   1.708  0.2263 -0.1744 -0.1411
    1W        W41738  25.026   6.141   9.160 -0.0324  0.0335 -0.0921
    1W        W41739  20.816   4.308   1.880  0.1181 -0.1914 -0.0175
    1W        W41740  20.574  28.481   7.547 -0.0429  0.0984  0.1443
    1W        W41741   1.249   0.591   6.637 -0.1305  0.1037  0.0734
    1W        W41742  18.490  16.077   7.526 -0.2939  0.1181 -0.1083
    1W        W41743   6.438   5.928   9.353 -0.1637  0.1369 -0.2958
    1W        W41744  11.985  28.763   8.035 -0.3153  0.0742  0.1500
    1W        W41745   0.560   7.847   1.037 -0.2474  0.0122  0.3792
    1W        W41746  22.272   7.018   9.326  0.2302  0.2982  0.2323
    1W        W41747  23.665  21.796   1.532  0.3662 -0.2224 -0.4100
    1W        W41748  13.673   4.080   9.253  0.2675  0.0515  0.0069
    1W        W41749  29.032  10.464   6.439 -0.2497  0.2382 -0.0012
    1W        W41750   2.587  17.406   1.314 -0.0723  0.0337  0.0919
    1W        W41751   9.710  16.915   2.378  0.0500 -0.2284 -0.0124
    1W        W41752   3.413  22.420   1.212 -0.1886  0.0573 -0.1121
    1W        W41753   4.881  22.887   8.497 -0.0018 -0.1356 -0.0478
    1W        W41754   4.224  26.026   7.815 -0.2209 -0.2085  0.2708
    1W        W41755  19.727  17.204   1.036 -0.0164 -0.0650  0.0051
    1W        W41756  17.843   8.697   1.780 -0.0896 -0.2481  0.1788
    1W        W41757  24.637  14.963   9.218 -0.0571  0.2312  0.0927
    1W        W41758   3.719  26.836   6.940  0.1810 -0.0535 -0.0286
    1W        W41759   4.005   4.805   7.319  0.2103 -0.2139  0.0349
    1W        W41760   4.438   0.742   1.112  0.1007 -0.0993 -0.0798
    1W        W41761  11.756   0.551   7.597 -0.1978 -0.3282 -0.0744
    1W        W41762   8.266   9.873   7.350 -0.0016  0.0768  0.3594
    1W        W41763   2.570  20.866   1.955 -0.2230 -0.1579 -0.0229
    1W        W41764   5.896  13.467   0.759 -0.0055 -0.1826  0.2865
    1W        W41765  21.525  17.111   0.116  0.1769  0.0450 -0.6012
    1W        W41766   8.097  14.033   7.564 -0.4003  0.0076  0.0934
    1W        W41767   6.144  10.850   2.880 -0.1729 -0.1481  0.0821
    1W        W41768  20.210  22.639   8.157 -0.2919  0.2940  0.0519
    1W        W41769  17.999  22.722   7.974  0.0581  0.0774 -0.0242
    1W        W41770  26.918  27.439   2.296 -0.2939  0.2144  0.0691
    1W        W41771  12.144  25.536   8.756 -0.0424 -0.1251 -0.0564
    1W        W41772  27.336   7.054   0.338 -0.3771  0.0318  0.0165
    1W        W41773  21.070  13.591   0.703 -0.1311 -0.0414  0.1202
    1W        W41774   2.300   2.684   6.511 -0.1486  0.1515  0.0935
    1W        W41775  29.487  14.072   8.607 -0.0065 -0.1535 -0.1513
    1W        W41776  16.564  21.543   6.317  0.1784  0.3129  0.1932
    1W        W41777  20.591  25.429   1.401  0.0190 -0.0423 -0.0138
    1W        W41778   2.371   4.222   7.225 -0.0866 -0.2068 -0.1511
    1W        W41779   5.520   7.725   8.564 -0.2444 -0.0853 -0.0299
    1W        W41780   9.363  19.844   0.038 -0.2959  0.2173 -0.1485
    1W        W41781  25.057  21.267   8.220 -0.2263 -0.0113  0.1305
    1W        W41782  16.290  11.978   1.221  0.1195  0.1383 -0.1355
    1W        W41783  26.107   4.078   9.388 -0.1056 -0.0708  0.1142
    1W        W41784  21.817  22.915   0.513 -0.1724 -0.2274 -0.1330
    1W        W41785  10.177  15.604   5.722  0.1775 -0.1492  0.1256
    1W        W41786  20.613  26.568   0.049  0.0542 -0.3560 -0.0710
    1W        W41787  25.818  20.315   2.631  0.3946 -0.2652 -0.0816
    1W        W41788   8.645  19.662   8.061  0.1406 -0.2514 -0.2679
    1W        W41789  28.146  27.089   8.034 -0.2359  0.4659 -0.1707
    1W        W41790  12.247  18.257   7.826 -0.1758  0.0420 -0.0201
    1W        W41791   4.758  28.117   2.394  0.2555 -0.1650  0.0714
    1W        W41792   9.531   0.751   7.093  0.2403  0.0025 -0.1954
    1W        W41793   4.251  15.263   0.075 -0.0735 -0.0961  0.3501
    1W        W41794  15.111  13.765   2.202  0.2370  0.2103 -0.1888
    1W        W41795  17.366  29.171   1.873 -0.2020  0.2121 -0.1113
    1W        W41796  17.892   0.837   3.685 -0.0417  0.0259  0.0186
    1W        W41797  27.092   0.446   2.186 -0.1512 -0.1320  0.1424
    1W        W41798  26.448  24.095   8.219  0.2681  0.3919 -0.0516
    1W        W41799  27.861  23.197   8.709  0.5536 -0.1981 -0.0947
    1W        W41800  18.213  26.846   6.316 -0.2307  0.1730 -0.2151
    1W        W41801  12.073   3.454   3.150  0.1223 -0.2432 -0.0335
    1W        W41802  29.399  25.327   8.252 -0.1853  0.0292  0.0389
    1W        W41803  10.000  24.357   9.413 -0.1586  0.3320 -0.0144
    1W        W41804   7.436   3.700   0.293 -0.0089 -0.0048 -0.0630
    1W        W41805   7.542  18.259   6.638 -0.1470  0.2064  0.3676
    1W        W41806   6.566  29.553   0.093 -0.0195 -0.0269  0.4478
    1W        W41807  14.056  13.290   8.883  0.0274 -0.0565  0.0751
    1W        W41808  19.727  20.923   5.666  0.4805 -0.0780  0.1006
    1W        W41809  17.750  21.271   0.464  0.0263 -0.0417 -0.0123
    1W        W41810   3.627   6.394   0.461  0.0484  0.1723 -0.0745
    1W        W41811  15.652  18.045   0.254 -0.1069  0.3379  0.0241
    1W        W41812  17.441  18.019   2.539 -0.0204  0.0713  0.0399
    1W        W41813  18.362  29.413   2.896  0.2088 -0.0128  0.3488
    1W        W41814  27.333  15.355   8.573 -0.1272  0.1259  0.0728
    1W        W41815  18.956  28.328   8.873  0.0290 -0.0630 -0.1548
    1W        W41816   7.990   2.227   8.540 -0.1535  0.0695 -0.2845
    1W        W41817  20.214   9.916   0.321 -0.1491 -0.1365 -0.0383
    1W        W41818  11.307   9.338   7.771 -0.1016 -0.1812 -0.4981
    1W        W41819   6.653  12.834   0.630 -0.0001  0.0167 -0.2811
    1W        W41820  28.319  18.490   9.307 -0.2595  0.2098 -0.0271
    1W        W41821   8.644  27.667   8.684  0.1095  0.0300 -0.2102
    1W        W41822   4.606   9.651   6.861  0.0464  0.1791  0.2311
    1W        W41823   4.417  26.069   0.334 -0.3725  0.3873 -0.2114
    1W        W41824   1.183  27.097   6.242  0.1125  0.3190 -0.1405
    1W        W41825  20.274  21.003   5.726 -0.1408  0.0951 -0.0573
    1W        W41826  26.767   0.814   9.072 -0.2273 -0.1731 -0.2727
    1W        W41827  19.354  17.432   1.394 -0.1641  0.2030  0.1294
    1W        W41828  18.938   8.026   2.965 -0.1938 -0.1204  0.4282
    1W        W41829   2.581  12.747   8.883  0.2792  0.2043 -0.0115
    1W        W41830  13.686  24.816   9.273 -0.1416 -0.2057 -0.1172
    1W        W41831   4.204   4.041   2.311  0.4481  0.5227  0.1207
    1W        W41832   8.604  16.887   7.819 -0.3038  0.0981 -0.1186
    1W        W41833  27.460  21.331   8.135  0.1866 -0.0812  0.2036
    1W        W41834   9.483   2.760   2.656  0.3590 -0.0866 -0.1999
    1W        W41835  23.258  21.982   9.507 -0.0458 -0.2497  0.1331
    1W        W41836  24.570  29.376   8.811  0.0031  0.2109  0.0527
    1W        W41837  13.597  10.015   0.331  0.3216 -0.2141  0.0864
    1W        W41838  10.877   7.290   8.934 -0.0579 -0.1291 -0.1414
    1W        W41839   2.806  21.125   2.409  0.2366  0.2680 -0.0577
    1W        W41840  29.622  23.358   7.586  0.1605 -0.2708 -0.2181
    1W        W41841  17.806  26.922   1.578 -0.1093 -0.1763  0.0876
    1W        W41842  21.479   2.468   3.445  0.3180  0.1481  0.0632
    1W        W41843   7.795  23.606   0.394 -0.0580 -0.0390  0.1001
    1W        W41844  12.461  20.337   8.194 -0.1187  0.1005  0.1970
    1W        W41845  29.129   1.464   0.461  0.4273  0.0013  0.2204
    1W        W41846   5.048   6.326   8.619  0.0100  0.1699  0.0110
    1W        W41847  14.210  11.111   1.416  0.0301 -0.1599  0.3931
    1W        W41848   7.400   8.157   1.260 -0.0849 -0.2282 -0.0531
    1W        W41849  28.101  17.740   1.919  0.2598  0.0405 -0.0055
    1W        W41850   7.121  10.644   0.523  0.0446  0.1194  0.4963
    1W        W41851  12.557  22.107   8.275  0.1009  0.1888  0.2152
    1W        W41852  27.962  12.679   8.279 -0.2211 -0.0623  0.1357
    1W        W41853  22.718  15.649   2.399  0.2053 -0.0454  0.1183
    1W        W41854   4.773  17.892   7.292  0.0795  0.2601  0.1064
    1W        W41855   6.403  28.269   7.660 -0.0408  0.2073 -0.2372
    1W        W41856  10.845  18.078   6.417  0.3060  0.0967  0.0762
    1W        W41857   2.462  20.894   0.859  0.0458 -0.0454 -0.2277
    1W        W41858  19.635   0.906   2.101 -0.0840  0.2615 -0.0027
    1W        W41859  22.859  20.138   0.570  0.0567 -0.2253 -0.4008
    1W        W41860  18.581   8.979   0.621  0.0274 -0.2982  0.4720
    1W        W41861   3.485  27.894   1.307 -0.3335 -0.1390 -0.1863
    1W        W41862  11.068  13.901   1.397  0.2999  0.0790  0.0408
    1W        W41863  13.775  11.785   6.716 -0.0157 -0.1056  0.1029
    1W        W41864  23.495   2.545   3.079  0.0893 -0.2320  0.0891
    1W        W41865   3.066  27.022   6.797  0.0188 -0.2608  0.2185
    1W        W41866  29.678   3.429   8.485 -0.0359 -0.3376 -0.3149
    1W        W41867  26.651   4.436   1.920  0.0570 -0.0501  0.1078
    1W        W41868  12.905  20.759   6.271  0.0938  0.0417  0.1923
    1W        W41869  16.245  13.024   1.115  0.0557  0.1458 -0.1376
    1W        W41870  20.669  12.705   0.856  0.0653  0.1210 -0.2503
    1W        W41871  23.091  17.908   8.198 -0.0392 -0.2009  0.0335
    1W        W41872  27.529   1.496   6.965  0.0678  0.0541 -0.1263
    1W        W41873  25.835  14.884   1.131 -0.1706  0.1227 -0.1324
    1W        W41874  25.973   5.695   2.473  0.1636  0.0403 -0.0256
    1W        W41875   5.609  29.603   7.231  0.1208  0.2722  0.1164
    1W        W41876   4.423   9.655   1.496 -0.0948 -0.0108 -0.1110
    1W        W41877   9.707   9.155   7.678  0.0391 -0.0615 -0.0402
    1W        W41878  17.258  24.434   9.435  0.1177  0.0403  0.0205
    1W        W41879  13.816   1.804   8.052  0.0593  0.2623 -0.1867
    1W        W41880   5.924  16.083   6.606 -0.1606  0.2279  0.0737
    1W        W41881  27.310   8.489   0.259  0.3342 -0.2449 -0.0775
    1W        W41882   1.666  16.378   8.787 -0.0877 -0.0780  0.2677
    1W        W41883  14.710   4.354   3.164  0.0247  0.0524  0.0259
    1W        W41884  22.622  24.288   1.475 -0.2787  0.1060 -0.0420
    1W        W41885  23.702   1.124   2.225  0.1788  0.4304  0.2677
    1W        W41886  20.757  13.455   2.061 -0.0487 -0.1271  0.2574
    1W        W41887  17.232  22.813   5.955  0.1537  0.0162  0.1045
    1W        W41888  19.730   1.550   9.144  0.0835 -0.0278 -0.2822
    1W        W41889   4.293   5.469   2.162 -0.0384  0.2939 -0.0061
    1W        W41890  10.454  10.801   7.899  0.0248  0.2845  0.3375
    1W        W41891  26.721   5.421   0.040 -0.1281 -0.0001 -0.0752
    1W        W41892  26.056  25.043   0.728 -0.0567  0.5796  0.1289
    1W        W41893  25.611   0.125   7.473 -0.1403  0.1179  0.0232
    1W        W41894  13.350  27.014   1.821 -0.1222  0.0985  0.0997
    1W        W41895   4.265  16.646   0.996  0.1955  0.4812 -0.2329
    1W        W41896   2.210  26.189   8.339  0.0165  0.0796  0.0514
    1W        W41897  13.631  17.310   8.610  0.0349  0.0187 -0.0835
    1W        W41898  11.160  14.436   0.478  0.1631 -0.0029 -0.0678
    1W        W41899  25.468  11.394   1.303  0.0723  0.0094  0.0845
    1W        W41900  13.017  29.203   7.148 -0.1657 -0.1614 -0.0081
    1W        W41901  18.043  14.159   8.462 -0.0720 -0.5360 -0.0714
    1W        W41902  28.881  26.029   8.379 -0.1593  0.0049  0.2534
    1W        W41903  27.226  12.620   8.999  0.0167 -0.1050  0.1695
    1W        W41904  15.909  12.876   2.481  0.0813  0.2836  0.3202
    1W        W41905  19.861   4.449   8.234  0.1587  0.0615  0.1370
    1W        W41906  21.410  23.319   0.696 -0.3675  0.1005 -0.0264
    1W        W41907  18.525  12.392   7.209  0.1385  0.1122 -0.0142
    1W        W41908   4.088  20.422   0.036  0.0594 -0.0318 -0.0993
    1W        W41909  29.249  29.321   1.086 -0.1289 -0.1412  0.1159
    1W        W41910   6.198  11.858   8.150 -0.1965 -0.1151 -0.0677
    1W        W41911  17.657  19.743   0.847 -0.0456 -0.0059  0.1986
    1W        W41912   0.160  22.990   2.023  0.2853 -0.0133 -0.0793
    1W        W41913  21.071  25.674   9.436  0.0187  0.0230  0.1300
    1W        W41914  10.049  27.478   0.953 -0.6067  0.0023 -0.2088
    1W        W41915  19.201  28.223   7.754 -0.0528 -0.1563 -0.0340
    1W        W41916  20.440   6.711   2.901 -0.0832  0.1593 -0.0642
    1W        W41917  27.844  14.608   8.100 -0.0506 -0.0017  0.1119
    1W        W41918  20.713  25.934   1.536  0.0437  0.0411  0.1203
    1W        W41919   2.222   9.451   8.664 -0.0617 -0.0052  0.0347
    1W        W41920  24.127  11.750   8.240 -0.0491  0.0408  0.0815
    1W        W41921  19.372  25.324   9.051  0.3242  0.1089  0.0770
    1W        W41922  11.514  12.247   8.643  0.1104 -0.0306  0.0437
    1W        W41923   9.053  19.591   1.502 -0.0355 -0.0812  0.0701
    1W        W41924  23.954  17.921   7.711 -0.4082  0.1313 -0.0366
    1W        W41925   2.696  24.422   7.531  0.0250  0.0790  0.0083
    1W        W41926   8.660  20.759   1.083  0.0864 -0.1634 -0.2653
    1W        W41927   4.408   6.963   1.445 -0.1972 -0.3789  0.0154
    1W        W41928  19.915  17.376   7.846 -0.0887 -0.0621  0.0712
    1W        W41929  28.717   5.521   8.962 -0.1605 -0.0849 -0.0223
    1W        W41930  22.094   5.446   8.674 -0.1877 -0.0062 -0.2848
    1W        W41931   3.975  26.208   7.345  0.1468 -0.1447 -0.0423
    1W        W41932   0.860   9.552   6.766 -0.0122 -0.0688  0.1208
    1W        W41933  29.383  19.183   0.363  0.1099  0.1541  0.0875
    1W        W41934   9.547  15.059   1.901 -0.2853 -0.1167  0.1677
    1W        W41935  11.239  20.272   6.277  0.0063 -0.0010  0.0137
    1W        W41936  18.113   8.660   0.768  0.1346 -0.1015 -0.2065
    1W        W41937   4.512  20.449   8.156  0.2247  0.2076  0.2593
    1W        W41938   7.896  20.665   7.116 -0.1434  0.1505 -0.0214
    1W        W41939   9.003   4.572   2.174  0.2114 -0.0631 -0.1183
    1W        W41940  20.418  22.474   7.434  0.1564 -0.0108 -0.1272
    1W        W41941  19.986  29.135   8.139  0.2674 -0.2009 -0.0209
    1W        W41942  11.442  14.189   1.198  0.1551  0.0600 -0.1427
    1W        W41943  12.097  16.956   6.867  0.2764  0.1524  0.0425
    1W        W41944   9.221  21.583   0.585 -0.2027  0.1786  0.2533
    1W        W41945  11.618  27.448   8.622  0.0944  0.0406  0.3635
    1W        W41946  25.826  20.705   1.009 -0.1992  0.1125 -0.2410
    1W        W41947  29.234   3.787   2.823 -0.1105  0.1453 -0.0818
    1W        W41948  12.576  10.865   7.999 -0.4595  0.1119  0.2839
    1W        W41949  18.808  27.113   1.175 -0.3425 -0.0905 -0.1407
    1W        W41950  23.550  19.223   1.869  0.1114 -0.2217 -0.1793
    1W        W41951  24.910   7.527   8.964  0.1140 -0.0137 -0.0926
    1W        W41952  29.429  29.427   8.292 -0.1967  0.2138 -0.0688
    1W        W41953  27.143  10.189   2.033  0.1142  0.0995 -0.0319
    1W        W41954  17.363  26.509   6.997  0.1208 -0.1348  0.3035
    1W        W41955  21.643  21.737   1.443 -0.0669 -0.0374 -0.0826
    1W        W41956  29.463   4.374   2.883 -0.0277 -0.0695  0.2581
    1W        W41957  22.927  26.991   9.165 -0.0963  0.1047  0.2318
    1W        W41958  29.523  27.369   6.208 -0.0551  0.0783  0.1896
    1W        W41959  20.427  17.559   0.422 -0.0697  0.0426  0.1081
    1W        W41960   7.756   6.856   6.830 -0.1100 -0.0710  0.2053
    1W        W41961  13.329  23.480   8.190 -0.1007  0.1153 -0.1908
    1W        W41962   2.101  19.345   1.658  0.3326  0.2596  0.1157
    1W        W41963  21.959  19.478   1.560 -0.2188 -0.0144 -0.1608
    1W        W41964  23.890  19.056   0.272 -0.0222  0.4600  0.2638
    1W        W41965  26.786  24.476   7.245  0.2444 -0.1900  0.0858
    1W        W41966  18.991  26.724   6.632  0.0106 -0.1229  0.2120
    1W        W41967  28.863   1.869   6.917 -0.0124 -0.2376 -0.0310
    1W        W41968  15.880  17.498   7.813 -0.0091  0.1483  0.3403
    1W        W41969   0.348  25.155   1.804  0.2507  0.1357 -0.1478
    1W        W41970  25.056  12.494   8.110  0.1605  0.0096  0.1779
    1W        W41971  25.412  18.648   9.231 -0.1427  0.0188  0.1222
    1W        W41972  11.219  17.891   8.658 -0.0502 -0.2714  0.1814
    1W        W41973  21.189  23.495   2.264  0.0579  0.0206  0.0337
    1W        W41974   3.152  12.296   9.031  0.0742  0.0117 -0.1002
    1W        W41975  24.304   9.086   2.129  0.1434 -0.1635 -0.2535
    1W        W41976  29.643   1.583   0.264  0.1882 -0.1762 -0.1821
    1W        W41977  18.217   7.107   9.126  0.0043  0.1025  0.0864
    1W        W41978  15.319  28.598   8.489  0.2559  0.1380 -0.1829
    1W        W41979  20.518  27.474   9.452 -0.0351 -0.3452 -0.1064
    1W        W41980  13.190   4.246   1.217  0.1613 -0.1561  0.1162
    1W        W41981  17.202  16.455   8.316  0.1839 -0.0907  0.1309
    1W        W41982  22.749   4.205   9.157  0.1806 -0.1136 -0.2061
    1W        W41983  12.618  19.963   9.474  0.4568 -0.2859 -0.0351
    1W        W41984  26.902  18.396   1.780 -0.1530  0.1173  0.3560
    1W        W41985  24.313  26.347   6.667  0.3182  0.0133 -0.0550
    1W        W41986  28.929  25.095   8.256 -0.0818 -0.2397  0.1613
    1W        W41987   8.044  19.851   5.950  0.2173  0.1094  0.1857
    1W        W41988  15.534  12.079   8.925  0.0858 -0.1415 -0.1093
    1W        W41989   7.115   4.882   6.652  0.1748  0.2083 -0.0685
    1W        W41990  16.898  16.725   6.598 -0.0669  0.0731 -0.1452
    1W        W41991   3.540  17.716   7.012  0.1111  0.1747  0.0603
    1W        W41992  18.962  20.270   6.865 -0.0416 -0.0813  0.4315
    1W        W41993  27.088   9.800   7.141 -0.0712  0.2537 -0.2454
    1W        W41994  25.210   7.264   2.919  0.2457 -0.2895  0.2369
    1W        W41995  27.330  26.355   6.964  0.1071  0.3044 -0.2006
    1W        W41996  15.204  14.977   6.265  0.0486 -0.1648 -0.2389
    1W        W41997  22.723   9.513   2.016 -0.1111 -0.2003 -0.1219
    1W        W41998  15.940  26.927   2.009 -0.0991 -0.0756 -0.1821
    1W        W41999  16.585   6.610   2.968 -0.2220  0.2758 -0.1523
    1W        W42000  18.132   1.344   8.852 -0.3214 -0.0667  0.1480
    1W        W42001   3.737   1.426   7.821 -0.0797 -0.2052  0.1574
    1W        W42002  19.269   9.315   1.355 -0.0267 -0.1337 -0.0377
    1W        W42003   3.435  16.133   9.021  0.1417  0.0454 -0.0533
    1W        W42004  10.961   4.795   8.050 -0.1344  0.0549 -0.1555
    1W        W42005   2.115  19.162   8.540  0.0588  0.0909  0.1922
    1W        W42006   0.840  15.533   5.979 -0.1490  0.2246 -0.1140
    1W        W42007  21.666  24.780   0.205  0.1220 -0.3613 -0.2942
    1W        W42008  15.568  20.534   6.176 -0.1485  0.1187 -0.0143
    1W        W42009   4.334  22.296   7.225  0.2735  0.2435  0.2500
    1W        W42010  18.453  23.044   5.833 -0.1108 -0.0658 -0.3234
    1W        W42011  11.920   4.259   8.514  0.1257  0.1622  0.0814
    1W        W42012  29.282   0.798   0.986  0.1916 -0.0382  0.0617
    1W        W42013  16.260  18.544   2.338 -0.2583  0.1983  0.1856
    1W        W42014   1.997   4.700   0.156 -0.1483 -0.1156  0.2117
    1W        W42015   7.733   9.010   2.330 -0.1382  0.1968  0.0957
    1W        W42016  17.240   4.656   0.594 -0.0866  0.1578  0.1315
    1W        W42017   6.849   5.936   2.496  0.2542  0.0862 -0.0684
    1W        W42018   1.522  22.332   7.363  0.1353 -0.2398  0.0739
    1W        W42019  14.768  20.104   6.268  0.2147  0.2275  0.0229
    1W        W42020  22.005  12.105   7.680  0.1713  0.0527 -0.2880
    1W        W42021   2.417  21.954   6.566 -0.0658  0.4586  0.0139
    1W        W42022  27.720  15.201   8.901  0.1441 -0.0105  0.1394
    1W        W42023  10.032  19.062   6.382 -0.0371 -0.3154 -0.2638
    1W        W42024  17.051  25.424   1.565  0.2771 -0.2049  0.1518
    1W        W42025  28.770  23.578   8.847 -0.1980  0.2578 -0.5067
    1W        W42026   2.037  10.327   1.112  0.2418  0.0600 -0.0688
    1W        W42027   9.996   4.565   7.674  0.0273 -0.0892 -0.1573
    1W        W42028   3.439  16.466   0.481  0.0634 -0.1090 -0.1284
    1W        W42029  17.085  25.504   9.151 -0.0870 -0.0355  0.0928
    1W        W42030   5.569  11.441   0.720  0.0649 -0.3508  0.0165
    1W        W42031   6.452   9.411   8.367  0.2386 -0.0263  0.0704
    1W        W42032  26.000   9.815   7.895  0.0166  0.1301 -0.1862
    1W        W42033   9.393  27.548   6.230  0.0431 -0.0016  0.0674
    1W        W42034  15.451  18.539   6.490 -0.0090  0.0132  0.0680
    1W        W42035  14.418  27.274   2.253  0.0077  0.1278 -0.2341
    1W        W42036  14.758   5.141   3.618  0.0756 -0.0436 -0.0255
    1W        W42037  23.671   1.402   1.829 -0.1998 -0.1912  0.1186
    1W        W42038  15.329  25.092   7.540  0.1736  0.1537 -0.0344
    1W        W42039   1.441  23.522   7.044  0.2643  0.0248 -0.2923
    1W        W42040  28.878  16.049   1.053 -0.0322 -0.1387 -0.0307
    1W        W42041  18.005  11.265   7.911 -0.0184 -0.2442 -0.1048
    1W        W42042  14.862  12.163   1.072 -0.2519 -0.1547  0.0092
    1W        W42043   1.344  19.222   1.931  0.1033  0.1037 -0.0969
    1W        W42044  24.050   0.189   1.253  0.0907 -0.2383  0.2275
    1W        W42045  17.028   7.799   0.813 -0.0111 -0.3228  0.1296
    1W        W42046  16.327  28.887   7.205  0.0936 -0.1833  0.0345
    1W        W42047   7.755  13.125   7.172 -0.0003 -0.1070  0.0881
    1W        W42048  18.561  26.615   6.882 -0.0721  0.0448 -0.2027
    1W        W42049  28.253  12.998   2.695  0.5399 -0.0738  0.0576
    1W        W42050   8.836   0.359   2.904  0.1181  0.2189  0.0799
    1W        W42051  12.356  23.673   7.639  0.0006 -0.0699  0.0352
    1W        W42052   9.582  13.313   7.028 -0.0079  0.3112  0.2093
    1W        W42053   1.839  12.729   0.824  0.2872 -0.2451  0.0294
    1W        W42054  10.276  16.342   2.001 -0.1639  0.2237 -0.1621
    1W        W42055  20.808  25.552   6.297  0.0286  0.0542  0.1870
    1W        W42056  22.340  19.474   8.908 -0.0316 -0.2187 -0.1391
    1W        W42057  10.479  14.805   8.018 -0.2696 -0.1737  0.0697
    1W        W42058  18.360  22.819   6.854  0.2417  0.0143 -0.3705
    1W        W42059  16.311   5.735   8.600 -0.0210  0.3487 -0.1158
    1W        W42060  19.965  20.790   6.148 -0.3883  0.1518  0.0448
    1W        W42061   4.328   1.194   8.490  0.0045  0.1449  0.1298
    1W        W42062  19.598  11.477   8.035  0.0127 -0.1419 -0.1921
    1W        W42063  29.634  28.401   6.511 -0.1005 -0.0935  0.1752
    1W        W42064  26.719  26.358   8.307 -0.0413  0.2431  0.3152
    1W        W42065  14.605  10.197   2.069  0.1302  0.0885 -0.2349
    1W        W42066  21.392  15.734   7.992  0.1677 -0.0439  0.1744
    1W        W42067   6.572   9.861   2.423 -0.0196  0.0875  0.1614
    1W        W42068  27.728  16.224   9.288  0.1705  0.0133  0.0839
    1W        W42069  10.053   3.843   3.600 -0.2601  0.3003 -0.3091
    1W        W42070  24.178  29.431   7.928  0.2404  0.0617 -0.0079
    1W        W42071   7.085   7.627   2.632  0.0811 -0.0387  0.1333
    1W        W42072   9.237  11.933   1.011 -0.1701 -0.2182  0.0943
    1W        W42073  25.410   6.892   9.367  0.3148  0.2622  0.2142
    1W        W42074   4.974   0.830   0.911  0.2392  0.0450  0.2433
    1W        W42075  28.532  17.016   1.540 -0.1110  0.3130  0.3607
    1W        W42076  16.965  27.115   9.296 -0.0041 -0.3031 -0.0891
    1W        W42077  18.654  14.326   7.754 -0.2979 -0.1662  0.0689
    1W        W42078  22.411  27.205   7.633 -0.1589 -0.2536 -0.2496
    1W        W42079   6.732   6.962   8.941 -0.5111  0.0673  0.1477
    1W        W42080  17.570  25.619   6.558  0.0773  0.4454 -0.5368
    1W        W42081   8.871  13.184   0.471  0.0441  0.3602 -0.2319
    1W        W42082  12.184  22.830   6.479 -0.2200 -0.1775 -0.0833
    1W        W42083  10.447   1.165   2.023  0.0626 -0.2524 -0.0574
    1W        W42084  22.017   5.315   9.201 -0.1070  0.1840 -0.1305
    1W        W42085  18.323  15.288   1.211 -0.1011 -0.1205 -0.1544
    1W        W42086  26.585   3.051   1.678  0.0114  0.0862  0.1335
    1W        W42087   0.804  10.775   1.413  0.0623  0.0004  0.0743
    1W        W42088   9.952  26.316   2.250  0.0648 -0.0039 -0.3605
    1W        W42089  19.081   6.244   0.025 -0.1480  0.0874 -0.0293
    1W        W42090  11.235  19.035   9.002 -0.1139 -0.0665 -0.1431
    1W        W42091   8.329   0.537   9.331  0.1592  0.1592  0.0805
    1W        W42092  17.758  13.552   0.930  0.0620  0.3275 -0.1663
    1W        W42093  28.714  15.399   8.270  0.1984 -0.1883 -0.0077
    1W        W42094  19.929   1.213   9.487 -0.1095 -0.0320  0.0009
    1W        W42095  22.887  17.201   8.131  0.0435  0.0571 -0.4300
    1W        W42096  28.555   7.504   7.839  0.0299  0.1838  0.1641
    1W        W42097  24.995   2.797   3.402 -0.0816 -0.0565  0.0138
    1W        W42098  12.917   8.349   2.025  0.0251  0.3372 -0.0413
    1W        W42099  25.609  29.317   1.337  0.1515 -0.2032  0.0170
    1W        W42100   4.903   4.746   6.889  0.0171  0.1182 -0.3269
    1W        W42101  16.437  24.185   1.347  0.3654  0.3236 -0.2106
    1W        W42102   7.383   0.375   2.728 -0.1720 -0.0584 -0.1476
    1W        W42103   8.401  22.857   1.982 -0.0427  0.1122  0.1927
    1W        W42104  27.312  13.160   7.771 -0.0845  0.0901  0.2341
    1W        W42105   2.293   9.203   7.811  0.0102 -0.1810 -0.0496
    1W        W42106   8.581   4.286   2.035  0.1788  0.1156 -0.0238
    1W        W42107  12.816  10.305   7.299 -0.2234  0.0760 -0.1243
    1W        W42108   7.622   8.307   0.385 -0.2461 -0.1463 -0.0033
    1W        W42109   2.089   7.405   7.646 -0.0284  0.0390  0.1863
    1W        W42110  26.501  23.830   0.283 -0.0461 -0.0806 -0.0731
    1W        W42111   1.631   7.655   7.303 -0.1968  0.0728  0.0329
    1W        W42112  27.250   0.787   8.995 -0.2039  0.2672 -0.0739
    1W        W42113  18.203  23.875   6.504 -0.1090 -0.0503  0.3767
    1W        W42114  18.276   7.426   1.347 -0.0419  0.0624  0.0969
    1W        W42115   8.814  12.273   7.009 -0.0688 -0.0130 -0.2545
    1W        W42116  28.459  13.145   9.137  0.1964  0.1344 -0.3060
    1W        W42117  15.665  28.097   0.792 -0.1431 -0.1115 -0.0705
    1W        W42118  13.417  25.473   7.144 -0.0401 -0.1447  0.1784
    1W        W42119  20.580  27.057   0.702  0.0460 -0.0996 -0.2021
    1W        W42120  23.474  10.109   8.096 -0.0595  0.2294 -0.3459
    1W        W42121  15.200  10.018   7.845 -0.2996 -0.0938 -0.2794
    1W        W42122  15.233  20.943   1.113 -0.0011  0.1747 -0.0750
    1W        W42123   4.516  25.140   1.607 -0.1758  0.3306  0.2253
    1W        W42124  15.411  13.253   8.104 -0.0111  0.2063  0.2256
    1W        W42125   0.103   1.569   9.171 -0.1081 -0.3496  0.2885
    1W        W42126  22.585   2.314   7.867 -0.1795 -0.1493  0.2366
    1W        W42127  27.025  23.209   9.024  0.0252  0.1882 -0.1218
    1W        W42128   8.868  25.795   0.945  0.2918  0.0206 -0.0071
    1W        W42129   6.355  12.398   8.604 -0.2474 -0.1969  0.0982
    1W        W42130  28.071  11.425   7.778 -0.0271 -0.0071  0.0732
    1W        W42131   7.285  11.002   7.100 -0.1511 -0.3006  0.0396
    1W        W42132  10.415  18.402   5.899  0.2427 -0.1017 -0.0121
    1W        W42133   5.653  20.998   6.132  0.0868  0.2728  0.2986
    1W        W42134   2.427   5.977   2.426 -0.1726 -0.1039  0.1424
    1W        W42135   2.461   8.265   0.191 -0.1752  0.2541 -0.3098
    1W        W42136  11.292  26.660   7.959  0.1245  0.3536  0.0846
    1W        W42137   7.847  17.960   9.022 -0.0107 -0.1119 -0.1787
    1W        W42138  27.874  26.849   1.714 -0.0168  0.0365 -0.1032
    1W        W42139   7.619  23.227   0.118 -0.0272  0.1880 -0.1730
    1W        W42140   0.957  17.804   2.239  0.3324 -0.0649 -0.0901
    1W        W42141  29.108  25.466   8.619  0.0621 -0.1647  0.1963
    1W        W42142  20.126  23.077   0.630  0.2598 -0.2950 -0.0464
    1W        W42143   6.787  13.175   0.975 -0.3768  0.0753  0.3424
    1W        W42144  25.626  19.771   8.955  0.0244  0.3555 -0.0705
    1W        W42145   7.076  29.521   0.123  0.1438  0.1722  0.0623
    1W        W42146   3.401  11.935   0.523 -0.2415  0.0441  0.1966
    1W        W42147  26.666  29.691   0.712 -0.2371  0.0485  0.1470
    1W        W42148   6.175  23.234   7.585  0.2485  0.4028  0.0804
    1W        W42149   8.840  26.808   6.803  0.1750 -0.0765 -0.0975
    1W        W42150   6.548  26.703   8.814 -0.3163  0.0951  0.0711
    1W        W42151  16.005  24.758   7.179  0.2984  0.1625  0.3580
    1W        W42152  19.104  18.542   0.463  0.0586 -0.0752 -0.0220
    1W        W42153   4.672  24.453   9.479  0.1506 -0.1309  0.2326
    1W        W42154  22.414  25.575   0.891 -0.3018 -0.2291 -0.1601
    1W        W42155  14.758   5.284   2.319  0.2806  0.0870  0.1143
    1W        W42156  18.519  18.395   1.023  0.0414  0.1625 -0.0544
    1W        W42157  28.115   4.063   2.717 -0.0689  0.0432  0.1194
    1W        W42158   6.874  17.810   1.580 -0.0218 -0.3021 -0.1618
    1W        W42159  20.864  20.256   9.200  0.1949  0.0791  0.2699
    1W        W42160  11.480  14.333   2.651  0.3568 -0.5607 -0.2003
    1W        W42161  15.794  21.715   7.914 -0.1174  0.2686 -0.0822
    1W        W42162  25.840  15.206   1.632 -0.2815 -0.0035  0.0499
    1W        W42163  27.196  15.921   8.849  0.1485  0.2785 -0.2265
    1W        W42164   5.190  29.786   2.057  0.0137  0.0756  0.1814
    1W        W42165  15.803  10.904   2.118 -0.3174  0.0931  0.0265
    1W        W42166   6.620  28.995   0.119 -0.0674 -0.3213  0.1061
    1W        W42167  10.058   3.550   3.010  0.0111 -0.2710 -0.2589
    1W        W42168  28.962  20.251   2.268  0.0475 -0.1562 -0.2333
    1W        W42169   3.613  14.452   2.299  0.2491  0.0934  0.0228
    1W        W42170  22.647  23.957   1.045  0.0017 -0.0027  0.0157
    1W        W42171   4.988  11.758   6.220 -0.0072  0.2282  0.1461
    1W        W42172  13.175  14.679   0.886  0.0228  0.0037 -0.1482
    1W        W42173  27.389   2.162   2.383 -0.0073 -0.4144 -0.1557
    1W        W42174  29.351   8.609   3.348 -0.1822 -0.0408 -0.3197
    1W        W42175  22.430   6.773   8.828  0.0321 -0.0526 -0.0268
    1W        W42176  22.443  26.550   0.783 -0.0416  0.1054 -0.0060
    1W        W42177  18.183  19.199   6.813 -0.4253 -0.0832 -0.3258
    1W        W42178   1.238   4.962   8.257 -0.0506  0.3374 -0.0452
    1W        W42179  26.817  25.344   0.063  0.0688  0.1569  0.0108
    1W        W42180   3.951   0.501   0.645 -0.0634 -0.2670  0.3246
    1W        W42181  21.955  12.602   6.948  0.1596  0.1593  0.0571
    1W        W42182  11.988  16.762   8.911 -0.2435  0.0819 -0.0943
    1W        W42183   0.854  17.028   2.596 -0.0603 -0.1251 -0.2157
    1W        W42184  25.367  12.172   8.313  0.0499  0.2170  0.2510
    1W        W42185   0.750   4.558   1.666 -0.0421  0.1286 -0.3042
    1W        W42186   5.313   6.072   6.247  0.1479 -0.1355 -0.1466
    1W        W42187  19.998   3.556   9.332  0.3040  0.1522 -0.1011
    1W        W42188  13.797  23.555   0.365 -0.1366  0.2826 -0.0056
    1W        W42189  27.833   0.215   9.447 -0.1611 -0.0135  0.3101
    1W        W42190   8.949  17.417   2.274  0.3093 -0.0644  0.1390
    1W        W42191  11.807  24.145   1.700 -0.3635  0.2312 -0.1234
    1W        W42192  23.557  25.382   7.589 -0.1531  0.1352 -0.0419
    1W        W42193  16.879  27.581   7.348  0.2158  0.0362  0.1418
    1W        W42194  14.435  21.232   6.989 -0.0131 -0.1748 -0.1456
    1W        W42195  26.651  21.103   6.546 -0.0790  0.1570 -0.0481
    1W        W42196  23.108  21.934   6.442 -0.0868  0.1288 -0.0172
    1W        W42197   0.061   7.877   0.954 -0.1668 -0.0867 -0.3390
    1W        W42198   6.476   7.790   0.949  0.0112  0.2125 -0.3406
    1W        W42199  10.750  21.848   1.145  0.2257  0.0409 -0.1558
    1W        W42200  22.007   8.471   1.714 -0.3060  0.1109  0.2062
    1W        W42201   2.037  16.614   9.077  0.0043 -0.0305 -0.0624
    1W        W42202  19.439  17.994   5.827  0.2226 -0.1438 -0.0366
    1W        W42203   8.051  16.509   5.788 -0.1325  0.1389 -0.1667
    1W        W42204  27.964   1.844   7.046  0.2747  0.1407  0.0113
    1W        W42205   2.676  29.178   8.950  0.4414  0.1238  0.1893
    1W        W42206   7.774   7.097   6.362 -0.0892  0.3031 -0.1008
    1W        W42207   3.269  15.013   1.079  0.0002  0.2541 -0.1194
    1W        W42208  13.407  13.172   0.176 -0.4294  0.0546 -0.0622
    1W        W42209  18.866   2.438   3.543  0.3213 -0.1109 -0.1620
    1W        W42210  14.131  20.692   9.106 -0.0237 -0.2499 -0.3455
    1W        W42211   9.298   5.916   1.649  0.1282  0.1008 -0.1155
    1W        W42212  16.462  26.814   7.764  0.0303 -0.2672  0.2558
    1W        W42213   6.363  12.782   8.968 -0.0014  0.3598  0.1712
    1W        W42214  15.144  24.197   9.140  0.2010 -0.0319  0.0479
    1W        W42215  11.776   6.479   1.239  0.2248  0.5472  0.1667
    1W        W42216   2.632  20.260   8.282 -0.2277 -0.1093 -0.3549
    1W        W42217  24.948  13.576   8.982  0.0415 -0.0175 -0.0067
    1W        W42218   6.806  19.675   1.669 -0.0202  0.0507  0.0591
    1W        W42219   0.915  19.204   7.311 -0.0554  0.0138 -0.0241
    1W        W42220   1.431   4.296   7.208 -0.0270 -0.0479  0.0036
    1W        W42221   4.029  15.107   7.448 -0.2890 -0.0212  0.0946
    1W        W42222  23.272  22.816   0.757 -0.1316 -0.0266 -0.2288
    1W        W42223  17.928  23.805   1.507 -0.2667 -0.1849  0.0911
    1W        W42224  26.094  17.643   2.343 -0.0519 -0.1467 -0.2847
    1W        W42225   8.861  10.545   1.149 -0.2663  0.0377 -0.2127
    1W        W42226   8.814  22.746   9.189  0.2458  0.0043  0.2768
    1W        W42227  25.495  27.326   8.822  0.0501 -0.2555  0.0914
    1W        W42228  15.722  29.114   0.679 -0.2511 -0.0354 -0.1626
    1W        W42229  22.176  14.306   9.504  0.0978  0.2123  0.0228
    1W        W42230   9.721  11.921   7.061  0.0838  0.1150 -0.3099
    1W        W42231  15.822   0.673   0.725 -0.1455 -0.0854 -0.3493
    1W        W42232  19.922   9.527   0.448 -0.2555  0.0158  0.0675
    1W        W42233   3.321   0.788   8.596 -0.0279 -0.2515 -0.1527
    1W        W42234   0.967  28.296   8.993  0.0173 -0.4094 -0.1994
    1W        W42235   6.920   2.363   0.294  0.2925  0.2011 -0.0666
    1W        W42236  29.267  23.691   0.206  0.2084  0.0891  0.1236
    1W        W42237  14.039  16.104   1.151  0.2600 -0.1865 -0.1543
    1W        W42238   9.481   7.169   1.640  0.1096 -0.0386  0.0856
    1W        W42239  17.909  26.080   6.476  0.0741 -0.0877 -0.4983
    1W        W42240  14.314  23.243   8.393 -0.0558 -0.2197 -0.2271
    1W        W42241  13.036  14.716   7.170  0.1685  0.1276  0.4064
    1W        W42242   1.230  15.203   9.336  0.0505 -0.4641 -0.0731
    1W        W42243   0.680  16.176   8.081 -0.0924 -0.0122 -0.0845
    1W        W42244  10.174   1.280   2.505 -0.1095  0.0027  0.1138
    1W        W42245   0.208   8.356   1.691  0.1044  0.0599  0.1152
    1W        W42246   0.357   8.456   2.382  0.0472 -0.0525  0.0806
    1W        W42247   6.863  27.846   1.883 -0.0727  0.1539 -0.0781
    1W        W42248  26.577  23.129   3.274 -0.2256 -0.1366  0.6321
    1W        W42249  18.416  21.084   8.558 -0.1312  0.1356  0.0994
    1W        W42250   9.853  15.440   1.506  0.1252 -0.1321  0.1007
    1W        W42251   0.901  24.676   8.615  0.1045  0.3052 -0.3208
    1W        W42252   3.166  11.715   2.045  0.0027 -0.1772  0.0256
    1W        W42253   8.415   3.012   1.461  0.1161  0.0285  0.0677
    1W        W42254  28.475   7.330   2.156  0.0882 -0.2856 -0.1593
    1W        W42255   3.978  28.862   7.554  0.1887 -0.0369 -0.0906
    1W        W42256  27.654  17.427   6.344 -0.0298  0.0729 -0.2398
    1W        W42257   7.451  12.798   0.281  0.1884  0.2486  0.1995
    1W        W42258   2.959  10.451   1.521 -0.0534 -0.3087  0.3671
    1W        W42259  10.891   7.879   6.950 -0.1730  0.0433 -0.0403
    1W        W42260  27.497   9.769   9.306 -0.0544 -0.0383  0.0181
    1W        W42261  19.668   8.336   2.344 -0.0795  0.3283 -0.0639
    1W        W42262  23.864  22.846   1.546 -0.0913  0.0941  0.2362
    1W        W42263   8.133   1.180   1.764  0.1715  0.2134 -0.0737
    1W        W42264  28.700   8.783   8.643  0.3410 -0.0730 -0.2584
    1W        W42265   9.546   7.952   8.638 -0.2966  0.2559 -0.0957
    1W        W42266  22.454  26.881   9.204 -0.1838  0.0927 -0.1706
    1W        W42267  23.262   8.496   1.608  0.1526  0.0291  0.0790
    1W        W42268  22.291   1.152   8.088 -0.0136 -0.2446  0.0062
    1W        W42269  11.979   1.322   9.203 -0.0339 -0.0769 -0.0682
    1W        W42270   8.426  24.264   8.976 -0.1816  0.0472 -0.5627
    1W        W42271  19.275  20.756   8.063 -0.1611  0.2342  0.2887
    1W        W42272  28.505   0.985   7.428 -0.2474 -0.1437  0.3601
    1W        W42273  18.843  13.410   9.464 -0.0722  0.1522 -0.0294
    1W        W42274  19.718  20.416   0.623  0.2916 -0.2637 -0.1536
    1W        W42275  26.066   9.311   0.067 -0.3129 -0.0615 -0.0979
    1W        W42276  23.635  20.552   7.309  0.1130  0.3709  0.3122
    1W        W42277   3.706  17.111   6.495  0.0165  0.2164  0.0220
    1W        W42278   9.892  26.652   7.857 -0.0937 -0.2062  0.1373
    1W        W42279  23.210  29.504   2.380 -0.2087  0.3976 -0.0414
    1W        W42280   7.795  23.988   1.835 -0.0814 -0.1603 -0.0247
    1W        W42281   1.205  28.041   1.473 -0.0459  0.0148 -0.4185
    1W        W42282  29.802   8.624   2.581  0.2923  0.2718  0.1675
    1W        W42283  20.107   9.088   0.604 -0.1248 -0.1352 -0.2510
    1W        W42284  13.950   1.959   8.872  0.0162 -0.1917 -0.3214
    1W        W42285   2.481  26.937   6.639  0.1469 -0.1212 -0.2800
    1W        W42286  20.234   1.210   9.135  0.0030 -0.1019 -0.2377
    1W        W42287  25.528   9.449   6.792  0.0442  0.2148  0.2658
    1W        W42288   4.676  12.499   7.657 -0.0380 -0.0672  0.1546
    1W        W42289  26.227  21.312   2.032 -0.2981 -0.3556 -0.3176
    1W        W42290  11.870  18.477   8.235  0.0248  0.1031  0.2312
    1W        W42291  14.267  10.845   8.203  0.1370  0.2889  0.2135
    1W        W42292   4.719   6.870   9.328  0.1225  0.1495 -0.1540
    1W        W42293  29.654  20.381   8.625 -0.0410  0.3306 -0.0023
    1W        W42294  22.095   3.320   1.440  0.2176  0.0548  0.2274
    1W        W42295  16.444   8.486   0.184  0.0754  0.3083 -0.3530
    1W        W42296   2.731  12.665   8.406 -0.2661 -0.2876  0.3191
    1W        W42297  10.619  26.315   8.846  0.1907  0.0710  0.0169
    1W        W42298  23.480   7.884   0.080  0.3298  0.0396 -0.0179
    1W        W42299  12.675   3.563   2.293  0.0968 -0.0536  0.4086
    1W        W42300  22.782   8.718   1.577 -0.1434 -0.2927  0.0344
    1W        W42301   4.317  14.232   2.961 -0.3209 -0.0252  0.1245
    1W        W42302  10.680  14.835   8.462  0.4184  0.0939  0.2611
    1W        W42303  10.329  29.538   6.667 -0.2434  0.2693  0.0525
    1W        W42304  16.576  10.090   1.197 -0.3234 -0.2394 -0.0609
    1W        W42305   2.990  27.876   7.454  0.0471  0.3868 -0.2957
    1W        W42306   5.228  13.753   1.424 -0.5090  0.2366 -0.0065
    1W        W42307  16.214  28.864   0.714  0.3476 -0.2744  0.0604
    1W        W42308  21.988  23.000   1.795 -0.1457 -0.0918  0.2014
    1W        W42309  22.102   3.044   2.160  0.2469 -0.1043 -0.1806
    1W        W42310  18.850  25.326   7.749 -0.0073  0.2302 -0.2940
    1W        W42311  15.030  14.660   7.315  0.2591 -0.0333  0.1497
    1W        W42312   0.391  24.546   7.129 -0.1803  0.0136 -0.1118
    1W        W42313  18.915  19.911   8.390 -0.0339 -0.0429 -0.2577
    1W        W42314  16.161  27.877   0.835 -0.0264  0.0935  0.1967
    1W        W42315  28.210  16.247   2.807  0.1527 -0.1188  0.2226
    1W        W42316  23.368  24.837   8.924 -0.2116  0.0338  0.0945
    1W        W42317  28.738  29.747   2.634 -0.2536  0.4408 -0.1547
    1W        W42318   1.525   1.023   6.787 -0.0435 -0.0846  0.2258
    1W        W42319  19.199  20.736   6.881  0.1383  0.1048  0.1171
    1W        W42320  13.528  22.054   6.183 -0.3055 -0.0222 -0.0711
    1W        W42321   5.975  17.256   2.253 -0.2841 -0.0415  0.0045
    1W        W42322  14.250   1.823   7.643 -0.0251  0.0629  0.0799
    1W        W42323  10.177  13.324   7.209  0.1317 -0.0743  0.2616
    1W        W42324  25.418  20.976   6.980  0.0014 -0.1348  0.3269
    1W        W42325  24.911   6.097   7.577 -0.0332  0.1913  0.1701
    1W        W42326   2.472  21.332   8.130  0.1650  0.2114  0.0534
    1W        W42327   2.599   8.559   8.420  0.3802 -0.0737  0.0793
    1W        W42328  13.431  27.825   0.675 -0.0354 -0.2173  0.2143
    1W        W42329  21.388  13.029   0.071  0.2724 -0.1904 -0.0316
    1W        W42330  26.604  15.120   7.585  0.1590  0.1243  0.1402
    1W        W42331   1.183   7.413   9.328 -0.0759  0.0314  0.0322
    1W        W42332  16.810  27.827   2.447 -0.0174 -0.1155  0.0279
    1W        W42333   2.084  18.814   6.658 -0.1635  0.2661 -0.2026
    1W        W42334   1.601  29.652   1.845  0.1644 -0.0296  0.0665
    1W        W42335  21.614  22.641   1.782  0.4402 -0.0189 -0.0950
    1W        W42336  23.224  19.319   0.914 -0.4972 -0.0556  0.2666
    1W        W42337  10.077  22.839   0.249 -0.2705 -0.3865  0.0365
    1W        W42338  17.942  14.632   1.468 -0.0892  0.2047  0.3175
    1W        W42339  21.566  26.300   0.036 -0.0944  0.0656 -0.1659
    1W        W42340  20.731  27.626   2.165  0.0121 -0.0232 -0.2292
    1W        W42341  22.572  13.523   1.909 -0.0142 -0.0993 -0.0692
    1W        W42342  17.239  18.589   1.429  0.0215 -0.0011  0.0143
    1W        W42343   4.205  13.175   9.455 -0.1498  0.1674  0.1544
    1W        W42344  16.536  11.283   2.412  0.0285 -0.0686  0.0613
    1W        W42345  28.767   3.740   7.928  0.0206  0.3412  0.0651
    1W        W42346  16.978  10.363   8.488  0.0011  0.0076 -0.1471
    1W        W42347  27.450   7.204   9.034  0.2695  0.0818  0.0116
    1W        W42348   0.761  12.183   0.888 -0.1063  0.5008  0.3188
    1W        W42349  21.880   1.533   1.875 -0.1188  0.1596 -0.0254
    1W        W42350  28.783   2.202   2.287 -0.2595 -0.1401 -0.2111
    1W        W42351  27.465  12.185   9.265  0.0664  0.1386  0.3025
    1W        W42352   5.149   9.391   7.600 -0.1036 -0.0476 -0.1096
    1W        W42353  26.260   9.389   7.771 -0.1471 -0.2647 -0.0642
    1W        W42354  14.436   4.849   2.383  0.2801  0.1075 -0.0224
    1W        W42355  28.937  14.985   8.407 -0.0696  0.3122 -0.0723
    1W        W42356   4.485   7.468   1.349  0.2521  0.4774 -0.2363
    1W        W42357   8.188  22.466   1.556 -0.1234  0.1936  0.0749
    1W        W42358  29.292  10.988   1.349  0.0331  0.1642  0.1673
    1W        W42359  10.892   7.768   0.046  0.1651  0.2582  0.3483
    1W        W42360   1.974  16.821   1.018  0.4736 -0.1392  0.0050
    1W        W42361  28.390  19.923   7.136 -0.1378 -0.0842  0.0395
    1W        W42362  10.695  19.610   1.353  0.0827  0.0869  0.0210
    1W        W42363   0.976  25.933   1.741 -0.2578 -0.0792 -0.1459
    1W        W42364  15.674   0.449   2.839  0.0432  0.0230  0.1266
    1W        W42365   5.384   8.457   0.645  0.3717 -0.1973 -0.0234
    1W        W42366  10.802   6.130   0.255  0.0991 -0.1638 -0.0085
    1W        W42367  12.468  19.776   8.076 -0.3347  0.0079  0.0995
    1W        W42368  23.458   5.570   8.009  0.1450  0.0795  0.1406
    1W        W42369  12.215   8.646   3.149  0.0175  0.3016 -0.0972
    1W        W42370   5.390   3.029   8.738  0.1091 -0.1951 -0.3972
    1W        W42371   0.421  16.613   8.195 -0.1396 -0.0410 -0.1176
    1W        W42372  26.026  18.822   7.429 -0.2411 -0.0509  0.0219
    1W        W42373  16.760  10.239   0.305 -0.0383 -0.3739  0.3866
    1W        W42374   4.115  29.733   0.796  0.0524  0.5005 -0.0068
    1W        W42375  29.363   6.816   2.347  0.2726 -0.1067 -0.1086
    1W        W42376  22.804   8.058   3.068 -0.0476  0.1920 -0.0313
    1W        W42377  22.135  14.455   8.677  0.0951 -0.0205 -0.1001
    1W        W42378  14.086   4.991   2.902  0.1872  0.0380  0.3303
    1W        W42379   4.696  26.475   5.876 -0.2131 -0.0010 -0.2430
    1W        W42380   7.121   9.010   8.668 -0.2374 -0.1167 -0.0422
    1W        W42381  12.496  21.583   7.993 -0.0608  0.1757 -0.1731
    1W        W42382  27.978  27.783   2.179 -0.1103  0.0040  0.0151
    1W        W42383  25.800  24.771   7.291 -0.2809  0.1298  0.1437
    1W        W42384  25.948  27.652   1.084 -0.1768  0.3085 -0.3175
    1W        W42385  17.024   6.922   2.964  0.0646 -0.1129 -0.3348
    1W        W42386  23.920  25.715   7.821 -0.2182 -0.0287 -0.2550
    1W        W42387   9.922  26.979   2.120 -0.2714 -0.1780 -0.3040
    1W        W42388  17.574  24.074   6.129  0.1072  0.0359 -0.0021
    1W        W42389  13.868  26.791   9.370  0.0123 -0.1374  0.3056
    1W        W42390  10.978   6.698   8.084 -0.2387 -0.0497  0.1214
    1W        W42391   0.738  23.924   7.710  0.0210  0.2170 -0.0933
    1W        W42392   0.746  24.229   1.399 -0.1349 -0.0894 -0.0662
    1W        W42393  29.703   2.037   1.829  0.0326  0.2631  0.0132
    1W        W42394  18.676  17.257   8.096  0.1269 -0.0308 -0.3765
    1W        W42395  15.674  24.894   1.415 -0.0953  0.3758  0.1169
    1W        W42396   7.136  16.553   2.566 -0.0517  0.2297  0.0241
    1W        W42397  17.357   3.490   3.578  0.2098  0.0570 -0.2684
    1W        W42398   8.345  21.234   0.030  0.1351 -0.0094  0.2555
    1W        W42399  11.105   9.101   8.644 -0.3501 -0.2979 -0.0640
    1W        W42400  19.716  13.463   0.437  0.1426 -0.0854 -0.2782
    1W        W42401  24.397   6.180   0.106  0.0607 -0.0997  0.2541
    1W        W42402  21.213  29.686   7.458  0.1329 -0.0635  0.1311
    1W        W42403  24.977  13.313   0.362  0.0285 -0.3143  0.3182
    1W        W42404  19.139   8.621   9.361 -0.1223  0.0157  0.2103
    1W        W42405  28.889  19.852   8.477 -0.1020 -0.1448  0.0165
    1W        W42406   4.176  10.344   1.056 -0.2065 -0.3980 -0.0590
    1W        W42407  26.435   1.363   7.601 -0.1062  0.2091  0.0159
    1W        W42408  23.284   5.851   0.536  0.1097  0.2298  0.0076
    1W        W42409   1.574  13.361   8.084 -0.0101 -0.2655 -0.0439
    1W        W42410   3.013  24.970   6.343 -0.1765 -0.0204 -0.0870
    1W        W42411   6.432  14.235   1.080 -0.0198 -0.3149 -0.1405
    1W        W42412   5.425  14.664   0.289  0.0377  0.1881 -0.0467
    1W        W42413   0.889  25.351   0.979  0.2224 -0.0804  0.0321
    1W        W42414  14.976   7.191   8.121 -0.2413  0.1731  0.0891
    1W        W42415  26.874  13.447   0.359 -0.1662 -0.0956  0.1705
    1W        W42416  19.572   0.531   1.549 -0.1330 -0.1282 -0.0603
    1W        W42417  11.669  12.451   2.875 -0.1077 -0.0193  0.0485
    1W        W42418  10.776  19.349   7.367  0.2312 -0.3631 -0.1085
    1W        W42419  17.368  28.048   1.277 -0.1136 -0.3529  0.0998
    1W        W42420  20.555  16.172   6.169 -0.0385  0.2162 -0.0374
    1W        W42421  17.375   0.356   8.749 -0.0291 -0.3854  0.1209
    1W        W42422   0.766   2.817   8.771  0.1193  0.0839 -0.1633
    1W        W42423   8.778  11.238   2.774  0.1068  0.0224  0.0190
    1W        W42424  22.046   3.632   2.010  0.1285 -0.1456  0.1918
    1W        W42425  22.948  18.901   6.775 -0.2211 -0.1853  0.1213
    1W        W42426  22.958   8.023   8.188  0.0951  0.1692 -0.2675
    1W        W42427   0.200  20.478   0.043  0.0853  0.1167 -0.0475
    1W        W42428  19.398  27.696   0.346 -0.1174  0.0039  0.1761
    1W        W42429  12.853  17.368   1.916  0.2268 -0.2641 -0.0024
    1W        W42430  10.796  23.389   9.393  0.2321 -0.2677 -0.1112
    1W        W42431   6.117   9.315   7.432 -0.0358  0.0155 -0.0062
    1W        W42432   0.548   8.323   0.930  0.0668  0.2090  0.0880
    1W        W42433   5.639  17.568   2.445 -0.0794  0.2224  0.3555
    1W        W42434  14.790  27.911   6.895  0.0961  0.2122 -0.0345
    1W        W42435   5.934  29.421   2.011 -0.1957 -0.2961 -0.0151
    1W        W42436   5.933  20.809   5.743  0.0588 -0.1320 -0.2265
    1W        W42437   2.483  11.705   7.150  0.2549  0.1318  0.1389
    1W        W42438   4.357   8.218   9.339 -0.1764 -0.1445 -0.1119
    1W        W42439  29.300   0.572   6.678 -0.0832 -0.5857  0.1057
    1W        W42440   1.784  22.650   7.050  0.2235  0.0565 -0.0918
    1W        W42441  22.734  26.119   7.840 -0.2126  0.0455  0.3834
    1W        W42442  26.011   0.754   6.531 -0.1621  0.0287  0.1158
    1W        W42443  18.937   2.320   1.297  0.1378 -0.0556  0.0825
    1W        W42444  22.283   5.411   1.971  0.3792 -0.0666 -0.1515
    1W        W42445   5.510  22.102   6.859  0.4577 -0.1078 -0.3023
    1W        W42446   5.620  23.792   8.887 -0.0582 -0.0106  0.0250
    1W        W42447  16.989  21.227   8.687  0.0405  0.2199 -0.0654
    1W        W42448   6.491  12.217   8.125 -0.2171 -0.0481 -0.3236
    1W        W42449  24.110  17.410   1.919  0.2167 -0.0701 -0.2410
    1W        W42450   8.340   7.830   0.726 -0.2408  0.0046 -0.0938
    1W        W42451   6.419  18.118   8.517 -0.3468  0.1889  0.0218
    1W        W42452  12.857  28.653   1.345  0.1396  0.0009  0.2391
    1W        W42453  12.316  20.992   5.632 -0.0635  0.1320 -0.0575
    1W        W42454   6.337   3.828   0.149  0.0931 -0.0628 -0.1342
    1W        W42455   8.294  18.333   2.656 -0.1759  0.1205 -0.0174
    1W        W42456   4.766  19.015   1.286 -0.1332  0.1551 -0.4509
    1W        W42457  28.654   2.360   0.499 -0.0734 -0.3056  0.0319
    1W        W42458  14.359  20.173   1.355 -0.0414  0.0888  0.1602
    1W        W42459  23.042   0.113   7.217 -0.1392 -0.2988  0.0391
    1W        W42460  18.105  19.669   7.111 -0.1415 -0.0146  0.1830
    1W        W42461  17.837   8.944   3.085 -0.0467 -0.0244  0.3261
    1W        W42462   2.545  12.555   0.275 -0.1110  0.0974  0.0221
    1W        W42463   5.174   1.992   1.223 -0.0839 -0.1861  0.0657
    1W        W42464  12.939  29.482   0.963 -0.1781  0.3697  0.1628
    1W        W42465  13.416  13.309   0.685 -0.1066 -0.1793  0.0190
    1W        W42466  10.426   8.589   2.209 -0.0297  0.2780 -0.1098
    1W        W42467  10.943  23.007   6.030 -0.0469 -0.2950  0.0803
    1W        W42468  17.986  14.852   7.243  0.1409  0.1126 -0.1661
    1W        W42469   4.337  13.153   6.965 -0.2044 -0.0647  0.1400
    1W        W42470  21.077  24.780   6.657  0.1985  0.0966 -0.3366
    1W        W42471  19.010  23.165   7.352  0.1065 -0.1957 -0.0648
    1W        W42472   0.582   2.875   2.103 -0.0017 -0.0487 -0.1830
    1W        W42473  13.709  11.744   7.681  0.2558 -0.1984 -0.0381
    1W        W42474   5.843  29.282   9.180  0.3832 -0.3063 -0.3045
    1W        W42475   4.373   0.343   7.275  0.0619  0.0651  0.0357
    1W        W42476   1.421  29.647   1.327  0.0967 -0.1053 -0.1196
    1W        W42477  21.456   1.102   2.865  0.1866 -0.0438  0.1540
    1W        W42478   4.660  16.748   0.075  0.1177  0.0948  0.0460
    1W        W42479   8.395  22.816   7.335  0.0110  0.0545  0.0618
    1W        W42480  21.031  11.742   0.005 -0.0440  0.1710 -0.2884
    1W        W42481   4.850  25.083   5.917 -0.0825  0.0380 -0.1767
    1W        W42482   1.566   2.255   1.968  0.0097  0.1157 -0.3632
    1W        W42483  18.952  15.983   7.084 -0.2249  0.2677 -0.3518
    1W        W42484   2.397  14.964   2.106 -0.1326  0.0136  0.0677
    1W        W42485  24.040   4.266   0.939 -0.0996 -0.1726 -0.1745
    1W        W42486   8.846  27.761   6.819  0.1415  0.3324  0.0846
    1W        W42487   8.431  19.834   2.027  0.1069  0.0397  0.1187
    1W        W42488  21.384   0.352   3.607  0.2618 -0.0914  0.1056
    1W        W42489   3.310   0.767   7.341  0.2242 -0.0055  0.1518
    1W        W42490   7.596  29.317   2.583  0.1126 -0.1140 -0.2153
    1W        W42491  15.197  18.802   6.113  0.1878 -0.3421  0.1242
    1W        W42492   9.034   2.492   6.882 -0.1237 -0.0132  0.1984
    1W        W42493  25.474  24.742   8.972  0.2255  0.2584 -0.2449
    1W        W42494  21.193  24.208   0.057 -0.0780 -0.0327  0.1048
    1W        W42495  19.692  21.985   8.712  0.0024 -0.0401 -0.1445
    1W        W42496  14.413  25.217   9.439 -0.2081 -0.0442  0.0393
    1W        W42497  29.306  17.517   7.514 -0.1259  0.1838  0.1672
    1W        W42498  19.199   1.109   3.946  0.1944 -0.2715  0.0265
    1W        W42499   9.386  26.322   0.215 -0.0598 -0.0593 -0.0331
    1W        W42500  23.482  23.062   7.742 -0.3681 -0.2404  0.0291
    1W        W42501   6.005  24.576   8.098 -0.1658 -0.0462  0.0296
    1W        W42502   6.646   4.285   2.166 -0.3174 -0.5183 -0.2378
    1W        W42503   2.888   6.292   7.929 -0.2791  0.1678 -0.1591
    1W        W42504  12.913   9.715   1.341  0.2328  0.1445 -0.3147
    1W        W42505   7.930  17.898   6.663  0.0087 -0.1417 -0.0589
    1W        W42506  23.694  13.688   1.587  0.0404 -0.0050 -0.0085
    1W        W42507  18.478   8.713   2.580 -0.1351 -0.1339  0.1150
    1W        W42508  10.099   8.374   7.425 -0.0752 -0.2471  0.1609
    1W        W42509  20.016  15.338   8.937  0.1871 -0.2404  0.1010
    1W        W42510  21.838  26.477   6.752 -0.1196  0.1796 -0.1026
    1W        W42511   4.815  18.344   2.039  0.0553 -0.0926  0.1482
    1W        W42512   6.722   3.634   2.529  0.0018  0.0824 -0.1252
    1W        W42513   1.968   4.245   9.332 -0.1726  0.1507  0.0325
    1W        W42514  28.666   2.700   8.161  0.3178  0.0934  0.2871
    1W        W42515  24.187  15.293   0.572  0.0493 -0.1978 -0.2078
    1W        W42516  24.625   2.552   3.200 -0.3825  0.3186 -0.1646
    1W        W42517  21.749   3.032   0.598  0.0360  0.0368  0.0779
    1W        W42518   0.096  27.698   8.112  0.0321 -0.0991 -0.3260
    1W        W42519   8.637   4.596   0.028 -0.0160 -0.1750  0.1745
    1W        W42520  23.548   1.081   8.735  0.1807 -0.1059  0.3276
    1W        W42521  12.237   2.593   1.028 -0.1676 -0.1708 -0.1970
    1W        W42522  10.180  24.415   0.861 -0.1127  0.1285 -0.1268
    1W        W42523  24.290  17.405   6.909  0.1706  0.3115 -0.0229
    1W        W42524  19.822  26.924   0.077  0.1181 -0.0656 -0.3422
    1W        W42525  13.449  25.604   8.821 -0.0644  0.0875 -0.2816
    1W        W42526   9.858  18.051   5.819  0.1466 -0.3769 -0.0284
    1W        W42527   1.072   0.931   7.800 -0.1085  0.1135 -0.2197
    1W        W42528   5.283  28.266   8.369  0.1258 -0.3105  0.1133
    1W        W42529  18.625   1.228   3.705  0.3190  0.3596 -0.0564
    1W        W42530   9.948  26.257   8.188 -0.1478  0.4610 -0.0328
    1W        W42531  18.216  24.395   6.937  0.1160 -0.1229 -0.0347
    1W        W42532  20.997  25.899   6.670 -0.1496 -0.1610  0.1439
    1W        W42533  28.926   5.391   1.507  0.4348  0.0600  0.2873
    1W        W42534  28.815  10.957   0.007 -0.0932  0.0997 -0.0798
    1W        W42535   8.876   3.177   8.593  0.2606 -0.3878  0.1013
    1W        W42536   4.337  25.585   0.371 -0.1903  0.0005 -0.1488
    1W        W42537   7.618  16.814   6.418  0.1397 -0.0162  0.0884
    1W        W42538   3.489  21.278   0.488 -0.0147 -0.1284  0.0184
    1W        W42539  10.168   6.163   0.980  0.1725 -0.1047  0.1375
    1W        W42540  13.427  29.748   1.839  0.2121  0.1522  0.2267
    1W        W42541  24.951  17.020   3.143  0.0289  0.0039 -0.1355
    1W        W42542  23.915  28.300   0.684 -0.0816  0.0431 -0.0231
    1W        W42543  14.715  25.652   6.640 -0.0548 -0.4900 -0.1595
    1W        W42544  18.441   7.726   8.509 -0.0839  0.0384 -0.0881
    1W        W42545  21.122   8.686   9.136  0.0072  0.0047 -0.1189
    1W        W42546  24.011  19.334   7.491 -0.2754 -0.2112 -0.2598
    1W        W42547  12.319  11.730   1.686 -0.0293 -0.1025  0.0430
    1W        W42548  24.397  21.367   1.698 -0.3002  0.0131  0.0686
    1W        W42549   6.595   3.213   2.286  0.1914  0.1123 -0.3717
    1W        W42550  12.898   1.901   2.560  0.0444  0.0144  0.3350
    1W        W42551  27.508  19.307   7.059 -0.1933 -0.1629 -0.0341
    1W        W42552  10.951   6.349   3.107 -0.4533  0.1112  0.0621
    1W        W42553  26.052  24.238   8.541  0.2110  0.5186  0.1497
    1W        W42554  20.998  23.575   1.779 -0.0550  0.0308  0.1164
    1W        W42555   6.293   8.310   8.792 -0.1093 -0.2105 -0.0062
    1W        W42556   0.217  18.690   2.158  0.2296  0.2113 -0.5839
    1W        W42557  25.464  24.086   8.412 -0.0062 -0.1092 -0.3428
    1W        W42558   9.012  26.383   6.567 -0.1484  0.0176  0.0449
    1W        W42559  20.157  14.585   7.544  0.0796 -0.0409  0.2139
    1W        W42560   7.015   4.118   2.532  0.0768 -0.0830  0.0789
    1W        W42561  12.987  19.007   0.362 -0.0049 -0.1171 -0.4048
    1W        W42562  23.840  17.321   0.373 -0.0206 -0.1143  0.0351
    1W        W42563  10.801  13.256   1.148 -0.0321  0.0820  0.3099
    1W        W42564  18.635  18.255   5.584 -0.1598 -0.2197  0.0387
    1W        W42565  24.891   1.913   1.968 -0.1745  0.1210 -0.1131
    1W        W42566  24.759  18.732   1.146 -0.0246  0.0730 -0.4585
    1W        W42567   3.595   2.768   3.418  0.1352  0.1008 -0.1196
    1W        W42568  24.684   1.598   2.307  0.0583  0.3919  0.1565
    1W        W42569  20.579  17.861   0.072  0.1118 -0.0450  0.2559
    1W        W42570   4.675  25.447   7.503 -0.0170 -0.0196 -0.2476
    1W        W42571  24.775  15.404   0.881  0.0798 -0.2603 -0.3015
    1W        W42572   5.102  24.097   2.261 -0.1581 -0.2628  0.3163
    1W        W42573  12.748   5.857   2.681  0.0839 -0.1018  0.0920
    1W        W42574  12.741   4.797   0.592  0.0546  0.0415 -0.0556
    1W        W42575   9.536  11.210   7.378  0.2136 -0.0561  0.2348
    1W        W42576  20.804   2.632   1.133 -0.2315  0.1568 -0.0213
    1W        W42577  29.076  14.096   8.359 -0.0487  0.0287 -0.1490
    1W        W42578  26.549  26.015   2.706  0.1908  0.1426 -0.4260
    1W        W42579  22.683   6.039   1.311 -0.0052  0.0548 -0.3500
    1W        W42580  24.817   9.489   8.829  0.2862  0.1756 -0.0377
    1W        W42581  23.786  24.559   9.116 -0.0721 -0.2020 -0.1586
    1W        W42582  27.792   7.294   0.409 -0.0397  0.3153 -0.2204
    1W        W42583  20.221  15.501   1.754 -0.0473  0.1921  0.1929
    1W        W42584  25.271  25.393   7.865 -0.1728  0.0962  0.0042
    1W        W42585   3.533  21.776   8.664 -0.0463 -0.1976 -0.2047
    1W        W42586  13.650   5.849   2.298  0.1781 -0.0849  0.0398
    1W        W42587   7.492   0.201   0.262 -0.1736 -0.2848 -0.1362
    1W        W42588  22.657  17.244   6.551 -0.2415  0.2135 -0.3686
    1W        W42589   7.191   9.819   7.945  0.1183  0.0736  0.0156
    1W        W42590  20.875   5.503   7.914 -0.2385  0.0633 -0.1375
    1W        W42591  26.540   2.512   2.910  0.3168  0.4482 -0.0045
    1W        W42592  29.221   4.990   1.599 -0.1614  0.3636 -0.2611
    1W        W42593  19.252  22.637   0.111 -0.0562  0.0250  0.0711
    1W        W42594   8.619   7.828   3.022 -0.2357 -0.0996 -0.0126
    1W        W42595  27.526  21.596   2.199  0.0455 -0.2454  0.0163
    1W        W42596   2.191  26.528   0.354 -0.0738  0.0253  0.0549
    1W        W42597   7.342   6.835   8.412  0.0260  0.5444 -0.2106
    1W        W42598  22.627   4.115   1.925  0.0707 -0.0762  0.1507
    1W        W42599  21.019  12.594   6.995  0.1941 -0.1927  0.0587
    1W        W42600  16.801  11.650   9.029  0.2986  0.0074  0.2005
    1W        W42601  24.640  20.080   0.607  0.4188 -0.1574  0.1735
    1W        W42602  10.983   5.989   1.563 -0.1463 -0.1740 -0.1287
    1W        W42603  16.346   9.063   1.765  0.2645 -0.1193  0.2600
    1W        W42604  14.432  26.403   8.149  0.1998  0.1432  0.0391
    1W        W42605   8.408  13.899   6.190  0.0298  0.0890 -0.0709
    1W        W42606   4.924   5.831   3.167  0.1931 -0.0931  0.1500
    1W        W42607  25.296   0.269   0.854 -0.1131  0.0542  0.1835
    1W        W42608  23.201   5.274   2.228  0.2748  0.3175  0.0472
    1W        W42609   1.002  13.013   0.812 -0.3623 -0.1544 -0.0983
    1W        W42610  23.819   4.438   0.030 -0.0778  0.3256  0.1955
    1W        W42611  25.074  27.774   2.320  0.1517 -0.1254  0.1641
    1W        W42612  18.586  15.598   7.072  0.1047 -0.0649 -0.0163
    1W        W42613   0.844  13.144   2.280  0.2634 -0.1301 -0.1797
    1W        W42614  29.531  18.145   0.215 -0.1241  0.0178  0.0697
    1W        W42615   9.911   6.642   1.669  0.1174 -0.0955  0.0629
    1W        W42616  27.739  28.756   9.023  0.3249 -0.1126 -0.2760
    1W        W42617  29.415  21.218   7.880  0.0976 -0.0574  0.2423
    1W        W42618  18.665   3.646   9.391 -0.2864 -0.0348  0.0144
    1W        W42619   2.170   5.571   2.205 -0.0493  0.0144  0.0480
    1W        W42620  16.921  16.772   7.545  0.2353 -0.2043  0.0166
    1W        W42621  28.088   0.585   0.704 -0.0071  0.3049 -0.1661
    1W        W42622   5.792  14.961   9.050 -0.0052  0.0381 -0.0704
    1W        W42623  21.422  21.133   1.665  0.1723 -0.1945  0.3925
    1W        W42624   8.975   3.169   1.426  0.1910  0.0086 -0.1275
    1W        W42625  25.951  13.479   7.747  0.0801  0.2883  0.0838
    1W        W42626  13.086   4.767   1.035 -0.1884  0.0739 -0.3136
    1W        W42627  23.778  17.087   7.813  0.1819 -0.2782  0.1882
    1W        W42628  14.988   4.684   3.319 -0.0555 -0.1662 -0.5384
    1W        W42629   9.074   1.875   9.336 -0.2539 -0.0682  0.1030
    1W        W42630  28.505   6.320   0.235 -0.3093  0.1320  0.4929
    1W        W42631  29.184  28.832   0.206  0.0192 -0.2312 -0.2162
    1W        W42632  22.562  19.133   6.992 -0.0186  0.3425 -0.1280
    1W        W42633   1.121   8.104   5.539 -0.0985  0.0102  0.1179
    1W        W42634  21.992  24.708   2.572  0.0368  0.2149  0.2510
    1W        W42635   7.207   9.942   0.900 -0.1058 -0.0324  0.1152
    1W        W42636  15.585   1.989   1.930 -0.0100 -0.3121  0.1974
    1W        W42637   4.849   8.009   7.459 -0.1237  0.1674  0.1326
    1W        W42638   3.422  13.585   2.840  0.0300  0.0061 -0.0459
    1W        W42639  28.280  13.294   5.962  0.1083  0.1024  0.0711
    1W        W42640   9.062  29.578   0.539 -0.2007 -0.2657  0.1645
    1W        W42641  14.875  11.704   0.261  0.0382  0.0723 -0.1455
    1W        W42642   4.389   6.478   3.117  0.0282  0.1103 -0.0577
    1W        W42643  12.412  22.228   7.361  0.1122  0.1569  0.0281
    1W        W42644  23.964  23.683   7.557 -0.0063  0.0007 -0.0862
    1W        W42645   3.327  21.032   1.449 -0.0764 -0.2323  0.0096
    1W        W42646   4.469  18.770   6.676 -0.0462  0.0098 -0.1678
    1W        W42647  11.258  20.266   1.266 -0.1180 -0.1194  0.0915
    1W        W42648  23.268  12.540   0.298 -0.2657 -0.0020 -0.0768
    1W        W42649   3.824  13.359   1.490 -0.0211  0.1727  0.0138
    1W        W42650  18.220  12.165   1.992 -0.0057 -0.0110 -0.1419
    1W        W42651   5.153  26.939   7.215 -0.2197 -0.1329 -0.2043
    1W        W42652  22.231   7.861   9.366 -0.2207  0.2624  0.0015
    1W        W42653   2.731  16.183   1.373 -0.3995  0.2166  0.2071
    1W        W42654  11.171  20.893   7.061 -0.0255 -0.0476 -0.2239
    1W        W42655  22.820   3.692   8.370 -0.0702 -0.2638 -0.1408
    1W        W42656  20.753   5.147   9.476  0.0305 -0.0558  0.3345
    1W        W42657  18.302  21.178   5.491 -0.3393 -0.2356 -0.0268
    1W        W42658  18.720  24.762   9.459 -0.1342 -0.0357 -0.2357
    1W        W42659  13.628  25.315   9.238 -0.0570  0.2059 -0.1351
    1W        W42660  19.752  27.682   1.792  0.1619  0.0339 -0.0164
    1W        W42661   6.327  19.730   5.599 -0.0248  0.0577 -0.0186
    1W        W42662  12.660   9.747   8.764 -0.0126  0.0706 -0.3744
    1W        W42663   9.835  21.036   6.170  0.2719  0.0831 -0.0796
    1W        W42664   8.379   3.001   0.935  0.0608  0.1648  0.0801
    1W        W42665   9.057  25.118   8.337 -0.0043 -0.0987  0.0115
    1W        W42666  19.452  10.080   1.750 -0.1359 -0.0864 -0.0493
    1W        W42667   5.647  27.468   8.641  0.0256 -0.0711 -0.2492
    1W        W42668   1.191  19.865   0.925 -0.0008  0.1282 -0.0458
    1W        W42669  26.181  15.125   1.952  0.1324  0.1790 -0.1924
    1W        W42670  16.307   3.860   4.171 -0.0936 -0.3020 -0.0479
    1W        W42671  23.361   0.170   0.395  0.0391  0.1631  0.0038
    1W        W42672  23.589   6.173   1.069 -0.0498  0.2480 -0.3232
    1W        W42673  19.454  27.458   6.293 -0.0039  0.0177  0.0642
    1W        W42674   7.796  19.771   0.633  0.2058  0.2097 -0.0283
    1W        W42675   3.569  19.941   7.395 -0.0098  0.0337 -0.1535
    1W        W42676  23.689  20.602   6.603 -0.0689 -0.2298  0.1493
    1W        W42677   3.198  11.779   9.202  0.1935  0.2964 -0.1910
    1W        W42678  16.889  19.670   6.697 -0.0778 -0.0302  0.1062
    1W        W42679  20.513  24.235   2.055 -0.0320  0.1541 -0.0860
    1W        W42680  22.856  28.032   2.549  0.0175 -0.0006  0.3471
    1W        W42681   4.392  18.688   8.685  0.1255  0.0766  0.1173
    1W        W42682  20.856  15.579   7.752 -0.1929  0.1444  0.1536
    1W        W42683   9.059  18.231   0.196 -0.0913 -0.1149  0.0954
    1W        W42684  11.026  24.546   7.978 -0.0901  0.0594  0.0811
    1W        W42685  10.738   9.763   8.265 -0.2338  0.0416 -0.1656
    1W        W42686  27.435   8.995   2.329  0.1630 -0.2396  0.0414
    1W        W42687  12.690  27.638   2.280  0.0527 -0.0637 -0.3825
    1W        W42688  24.742  25.636   2.275 -0.3281 -0.3188  0.1141
    1W        W42689   5.906   0.921   0.813 -0.0561  0.0039  0.3623
    1W        W42690   5.668   8.915   0.029  0.3455  0.0656  0.0690
    1W        W42691   4.600  20.992   8.892  0.0225 -0.0027  0.0727
    1W        W42692  10.880  21.091   1.529 -0.0532  0.1205 -0.0020
    1W        W42693  20.406   8.144   8.723  0.0078 -0.0069 -0.0277
    1W        W42694  27.092  26.762   7.169  0.2931  0.0141  0.2455
    1W        W42695   1.971  29.674   1.143 -0.0022 -0.1366  0.4757
    1W        W42696  23.532   8.334   0.648 -0.0129  0.2512  0.2304
    1W        W42697  12.714  16.810   8.546 -0.0480 -0.1441  0.2210
    1W        W42698  18.469   7.205   3.041  0.0080  0.0469 -0.3817
    1W        W42699  15.795  27.406   2.879 -0.2228  0.1643 -0.1091
    1W        W42700  22.455   6.525   2.948  0.0474  0.0755  0.0834
    1W        W42701  18.778   2.686   1.616  0.1000  0.1117 -0.1924
    1W        W42702  21.411  19.272   9.005  0.1381  0.3768 -0.3830
    1W        W42703   3.685  18.160   1.569 -0.0963 -0.0387 -0.0419
    1W        W42704  11.670  23.943   1.203 -0.1174 -0.1117  0.0739
    1W        W42705  15.514   2.401   1.409  0.0948  0.0622  0.3364
    1W        W42706   8.107  17.541   8.092  0.0652 -0.0392 -0.0101
    1W        W42707   2.011   9.779   8.329 -0.0813  0.0347 -0.3638
    1W        W42708   7.213   7.975   0.528 -0.2453  0.0405 -0.0437
    1W        W42709   2.062  10.366   7.105  0.1138 -0.5246 -0.1996
    1W        W42710  17.638  16.236   7.801 -0.1006 -0.1838  0.2634
    1W        W42711  24.249  13.999   0.822 -0.3071  0.0266 -0.3298
    1W        W42712  13.116  26.084   7.809 -0.2686  0.4814  0.0341
    1W        W42713  29.364   0.374   1.199 -0.2039  0.1106 -0.1454
    1W        W42714  20.652  23.579   1.339 -0.2690  0.1868  0.2760
    1W        W42715   6.207  14.217   7.598 -0.3092  0.3164  0.0861
    1W        W42716  11.729  19.538   1.009  0.1812  0.1604  0.0714
    1W        W42717  21.915   8.034   1.399  0.0143 -0.1576  0.1271
    1W        W42718   3.851  25.998   1.647  0.0146 -0.0698 -0.0660
    1W        W42719  23.653  17.310   6.258 -0.0554 -0.0523 -0.2406
    1W        W42720  24.817  16.836   0.603  0.1612 -0.0090 -0.0213
    1W        W42721  14.862  12.200   1.580 -0.1333  0.0205  0.2973
    1W        W42722  27.903  24.880   2.933 -0.1606 -0.0864  0.1103
    1W        W42723  27.224  24.856   1.165  0.0051  0.0683 -0.1084
    1W        W42724  17.463   2.589   1.561  0.0429  0.2096 -0.1707
    1W        W42725  24.888  21.085   1.624 -0.0998  0.3324  0.1322
    1W        W42726  24.428  23.267   8.070  0.0816 -0.0695 -0.1108
    1W        W42727  29.173   5.586   7.146  0.0194 -0.0024 -0.1955
    1W        W42728   5.744  10.930   1.105 -0.2246  0.1848  0.0005
    1W        W42729  14.526   6.625   9.280 -0.0819 -0.0182 -0.1214
    1W        W42730  20.447   9.877   8.666  0.3447  0.3520 -0.0716
    1W        W42731  10.752   7.803   1.781  0.0760 -0.5497  0.1281
    1W        W42732  22.323  17.735   0.234 -0.0529  0.0099 -0.2220
    1W        W42733  17.298  13.596   8.030 -0.2035 -0.2650 -0.1172
    1W        W42734   6.670  25.438   1.632  0.3174  0.1018 -0.0534
    1W        W42735  13.279  18.229   8.659  0.0638  0.0247  0.1674
    1W        W42736   4.273  10.065   1.774  0.1178 -0.0164  0.1744
    1W        W42737   1.366  14.081   9.084  0.2016  0.3477  0.1727
    1W        W42738  16.990  26.514   0.335 -0.2451  0.0958 -0.0125
    1W        W42739  12.354  19.013   0.307 -0.0304  0.2251 -0.0137
    1W        W42740   6.262  19.051   7.445 -0.1083 -0.0213  0.1244
    1W        W42741  21.241  26.636   9.339 -0.1077  0.2041  0.4262
    1W        W42742  14.681   2.961   8.095  0.2838 -0.2191 -0.1942
    1W        W42743  14.879  26.567   6.337  0.1103 -0.0118 -0.1776
    1W        W42744  20.797  22.010   7.208  0.0382 -0.0790 -0.2211
    1W        W42745  25.389  19.659   1.919  0.1958  0.0099  0.0443
    1W        W42746  16.333  15.382   1.249  0.0178 -0.0799 -0.1152
    1W        W42747  12.597   8.412   1.596 -0.1246 -0.0510 -0.1948
    1W        W42748   9.030   0.445   1.669 -0.2984 -0.2701  0.1661
    1W        W42749  26.528  24.705   9.079  0.0367 -0.2401  0.0543
    1W        W42750   2.407  10.310   7.565  0.0912  0.2501 -0.2357
    1W        W42751   1.508  18.305   7.627 -0.1288  0.0109 -0.1161
    1W        W42752  19.954  23.093   8.181 -0.1803 -0.0774 -0.0573
    1W        W42753   2.872   9.510   2.604 -0.0319  0.1554 -0.4771
    1W        W42754   3.426  11.554   1.498 -0.3031 -0.1312 -0.1815
    1W        W42755  19.698  26.721   8.245  0.3241 -0.2123 -0.0647
    1W        W42756   8.926  21.237   1.416 -0.1006  0.0381  0.0215
    1W        W42757  10.715  24.608   9.310 -0.0985 -0.1818 -0.0162
    1W        W42758   1.629  29.694   9.347 -0.0127  0.2438  0.0693
    1W        W42759   2.238  21.755   8.130  0.0682  0.0323  0.2806
    1W        W42760  20.549  21.097   9.190 -0.1231  0.2727 -0.0790
    1W        W42761  19.437  27.574   0.809  0.3986 -0.2330  0.2310
    1W        W42762  19.741  28.098   1.199  0.0224  0.1921  0.0155
    1W        W42763  21.390  17.916   8.063  0.0740 -0.1954  0.0147
    1W        W42764  15.270  17.423   6.321 -0.0465  0.0345 -0.1306
    1W        W42765   2.038  23.357   0.621 -0.0300  0.1786 -0.0620
    1W        W42766  14.391  19.954   6.989  0.4350 -0.2322 -0.0783
    1W        W42767   4.947  11.085   8.141  0.2340  0.2286  0.0473
    1W        W42768  20.572  27.805   1.713 -0.0642  0.1290  0.0135
    1W        W42769  21.543   1.402   3.247  0.3974 -0.1154 -0.3984
    1W        W42770  15.512  23.493   7.739  0.1012 -0.1594 -0.1089
    1W        W42771   4.651   3.045   0.301 -0.0972 -0.0311  0.0816
    1W        W42772  20.921  29.491   2.700  0.3112  0.2551  0.0414
    1W        W42773  22.161   2.196   2.280 -0.0514 -0.1528  0.0230
    1W        W42774   4.956  12.858   0.334 -0.4189  0.0626 -0.0956
    1W        W42775  26.980  22.468   0.805 -0.3832  0.0912  0.1115
    1W        W42776   4.320  22.035   1.493  0.4586 -0.1298  0.2465
    1W        W42777  10.947  25.508   5.893  0.2094 -0.0196 -0.1095
    1W        W42778  21.968   5.624   2.327  0.0845  0.3118  0.0466
    1W        W42779  25.425  24.976   7.615 -0.0594 -0.0890 -0.1929
    1W        W42780  17.365  26.832   9.401  0.0943 -0.0462 -0.2688
    1W        W42781  20.823   3.733   2.993 -0.1522 -0.2145  0.0166
    1W        W42782  17.566  25.966   6.115 -0.1278  0.0307 -0.1215
    1W        W42783   1.717  17.666   0.333  0.0893  0.0608 -0.0712
    1W        W42784  26.885  25.930   8.133  0.0673 -0.0516 -0.0292
    1W        W42785  13.631  23.761   6.897  0.1481 -0.2419  0.1223
    1W        W42786  17.634  21.147   8.194 -0.0520 -0.0347  0.0031
    1W        W42787  13.795  24.576   6.597  0.1591  0.0946 -0.0643
    1W        W42788  18.153   0.541   0.756 -0.0102 -0.0498  0.0175
    1W        W42789   2.326   5.161   7.121  0.0336  0.0115  0.1312
    1W        W42790  11.786  15.572   0.802 -0.3760  0.1553  0.1775
    1W        W42791   1.827  23.029   0.881 -0.3598 -0.1825 -0.1525
    1W        W42792  25.135  16.775   2.188  0.1786 -0.2122 -0.0844
    1W        W42793  12.444  14.875   0.451 -0.4601 -0.1669  0.1573
    1W        W42794  19.627  11.973   1.426 -0.0822 -0.2549  0.1314
    1W        W42795  11.652  17.638   9.432 -0.2462  0.1673  0.0936
    1W        W42796   4.938  18.988   6.396 -0.3701 -0.2167  0.0050
    1W        W42797  13.196   3.260   8.877 -0.0821  0.0979 -0.0919
    1W        W42798   7.765  24.130   8.689 -0.1966  0.1819 -0.1392
    1W        W42799  29.002  24.628   2.969 -0.1286  0.0131  0.0691
    1W        W42800   9.100   1.055   7.077 -0.1212  0.2384 -0.0400
    1W        W42801  28.965  21.844   7.228 -0.1891 -0.0495 -0.1820
    1W        W42802  17.177  12.894   7.394 -0.1467 -0.1138 -0.3366
    1W        W42803   0.318  24.343   7.619  0.0435 -0.0164 -0.2347
    1W        W42804  24.732  11.465   8.400  0.0402 -0.0567 -0.1340
    1W        W42805  29.197  13.390   6.919 -0.0285 -0.0234  0.1880
    1W        W42806  16.053  21.854   9.451  0.0756 -0.2838 -0.1262
    1W        W42807   6.129  29.238   0.014 -0.1100 -0.0663  0.1835
    1W        W42808  11.490  12.140   0.827  0.1245  0.0405 -0.0076
    1W        W42809   3.057   3.040   3.374  0.3138  0.2787 -0.2639
    1W        W42810  12.218  16.572   6.520  0.0161 -0.0673  0.0580
    1W        W42811  18.436   0.994   9.138  0.0315  0.0847 -0.4571
    1W        W42812   7.269   4.840   1.665  0.0819 -0.0714  0.2472
    1W        W42813   2.286  16.134   0.235  0.1855  0.0118  0.1808
    1W        W42814   5.735  12.953   5.760 -0.2227 -0.1893  0.0775
    1W        W42815  26.359   3.076   9.399 -0.0032 -0.2360  0.0285
    1W        W42816  19.935  28.366   7.163  0.2229  0.0935 -0.2162
    1W        W42817   3.368  17.407   7.396  0.1357  0.4155 -0.0162
    1W        W42818  14.992  10.238   8.261  0.3530  0.2594  0.2337
    1W        W42819  11.082  23.303   9.010 -0.1878  0.1028  0.0926
    1W        W42820  23.128   9.747   8.358 -0.2720  0.1780 -0.4131
    1W        W42821   5.384   2.466   6.958 -0.3147  0.1506  0.0415
    1W        W42822  16.143  14.394   1.191  0.1628 -0.3214  0.2664
    1W        W42823  14.478  27.605   9.030  0.2429 -0.0088 -0.1885
    1W        W42824   2.817  17.717   7.574 -0.3490 -0.2774 -0.0689
    1W        W42825  27.965  11.741   8.158  0.0112  0.2658  0.2613
    1W        W42826   8.522  29.214   9.340 -0.1728 -0.0489  0.1388
    1W        W42827   7.786   9.773   7.142  0.4000  0.1677 -0.0399
    1W        W42828  25.692  11.685   8.413  0.0885  0.0318 -0.0327
    1W        W42829  15.455   5.995   8.956 -0.0260 -0.3375  0.2330
    1W        W42830   3.547   4.302   3.099  0.0788  0.1420  0.1167
    1W        W42831  16.709   3.562   0.175 -0.2530 -0.2603  0.1041
    1W        W42832  23.091   9.154   9.348 -0.1178  0.0848  0.1070
    1W        W42833  27.087  14.988   7.797  0.2157 -0.0672  0.0510
    1W        W42834   2.941   2.835   0.179 -0.0139  0.2470 -0.0571
    1W        W42835  13.376   1.267   9.126 -0.2094 -0.0768  0.2325
    1W        W42836  16.730  22.404   9.311  0.2755 -0.0447 -0.0178
    1W        W42837   0.314  13.597   0.589  0.2436  0.0613  0.1389
    1W        W42838  16.760  20.379   1.678 -0.0638  0.1834  0.1892
    1W        W42839  26.021   8.375   7.404 -0.1132 -0.2706 -0.0019
    1W        W42840  24.497  15.636   1.237 -0.1562 -0.1917 -0.1997
    1W        W42841   8.474  14.110   8.276  0.0509 -0.1801 -0.0255
    1W        W42842  22.799   7.560   8.050  0.2516  0.0475  0.0855
    1W        W42843  20.929  19.339   7.663  0.1489 -0.1764  0.2302
    1W        W42844  11.025  12.798   1.137  0.2346  0.0398 -0.0285
    1W        W42845  11.623  12.516   7.394 -0.0374 -0.3993 -0.0461
    1W        W42846  15.191   9.337   8.376  0.1653  0.2602 -0.1513
    1W        W42847   8.855   4.196   8.738  0.3014 -0.1400 -0.1741
    1W        W42848   3.419   8.059   8.551 -0.0117 -0.2471  0.0381
    1W        W42849   6.884   0.098   8.279  0.3651  0.1785  0.4760
    1W        W42850  14.211  21.419   8.031 -0.2786 -0.1908  0.0899
    1W        W42851  22.873  14.796   8.335 -0.6641 -0.1746 -0.2580
    1W        W42852  21.760  14.074   8.721  0.1731 -0.5334 -0.0174
    1W        W42853  13.324  20.005   6.522  0.1558 -0.3641 -0.0940
    1W        W42854  28.573  15.906   9.460  0.0423  0.1406 -0.0961
    1W        W42855   0.443  25.993   1.555 -0.0715  0.3569 -0.2581
    1W        W42856  21.890   3.172   3.458  0.0045 -0.1077  0.0239
    1W        W42857   2.047   9.468   0.076 -0.2598 -0.0775  0.1160
    1W        W42858   5.579   4.302   2.257  0.1612  0.0899  0.1457
    1W        W42859  15.787  21.632   0.260  0.1368  0.0977  0.2309
    1W        W42860   8.775  16.407   7.899 -0.1088 -0.2661 -0.2000
    1W        W42861  10.366  10.566   0.844 -0.1350  0.0364 -0.2137
    1W        W42862  28.351   0.873   8.837  0.1920 -0.2679 -0.0984
    1W        W42863  26.756  12.316   7.682 -0.2175 -0.0305 -0.0680
    1W        W42864  21.831  19.928   1.684  0.5140 -0.2635 -0.2916
    1W        W42865   1.068  22.713   2.099  0.1762  0.2976  0.0390
    1W        W42866   8.920  29.777   2.539  0.2186  0.2583 -0.0437
    1W        W42867  13.142   1.114   3.161  0.1125  0.2639  0.0434
    1W        W42868   0.800  28.798   5.761  0.1220  0.3947 -0.0756
    1W        W42869  12.351  29.518   0.786 -0.0606 -0.0456  0.1835
    1W        W42870  19.387  18.840   6.298  0.2201  0.1340 -0.2026
    1W        W42871   5.556  10.144   0.102  0.1771 -0.0006  0.1641
    1W        W42872  26.107  20.235   6.753  0.2231  0.1072 -0.2582
    1W        W42873  18.561   2.050   2.164 -0.0624  0.4393 -0.3427
    1W        W42874   2.892   5.348   8.671 -0.0551 -0.0206 -0.2191
    1W        W42875   4.166  14.873   1.689 -0.3285  0.3282 -0.3247
    1W        W42876   6.624  11.929   1.316  0.2839  0.0759  0.1632
    1W        W42877  22.847   5.958   1.813  0.0988  0.1582  0.0077
    1W        W42878  14.778  27.948   2.787  0.1266  0.0784 -0.2787
    1W        W42879  23.846   2.908   8.441 -0.3958  0.2253  0.1522
    1W        W42880  28.497  17.217   0.443 -0.0564  0.1453 -0.1041
    1W        W42881   1.195   8.423   7.248  0.2428  0.0468 -0.0968
    1W        W42882  10.671  27.742   0.318 -0.1357  0.2455  0.1686
    1W        W42883  26.112   4.956   9.382  0.0931  0.2084  0.1213
    1W        W42884  19.793   8.609   8.047 -0.2304 -0.2289 -0.0590
    1W        W42885   0.351   1.645   1.947 -0.3472 -0.3432  0.0264
    1W        W42886  19.039   9.917   7.941 -0.2835 -0.1269 -0.2104
    1W        W42887   3.886   9.011   0.369 -0.3561  0.0102  0.0332
    1W        W42888  23.066   9.769   2.383 -0.2149 -0.0900 -0.1539
    1W        W42889  19.254   0.523   0.550  0.2207  0.0156 -0.2131
    1W        W42890  20.185   5.712   8.092  0.2145  0.1076 -0.0474
    1W        W42891  12.714  27.249   9.405  0.1864  0.1698  0.2391
    1W        W42892  19.278   0.206   3.222 -0.3114 -0.0390 -0.1499
    1W        W42893  19.052  28.831   1.986 -0.0290  0.0152  0.2032
    1W        W42894  15.783  21.372   7.419  0.1502 -0.3380 -0.1045
    1W        W42895   7.080  25.825   8.535 -0.0337  0.2489 -0.0081
    1W        W42896   5.651   8.586   3.439  0.0530  0.2134 -0.1298
    1W        W42897   4.378  21.974   7.618  0.0036  0.1365  0.1059
    1W        W42898  12.370  16.236   7.842  0.0973 -0.0734  0.3708
    1W        W42899   0.871  11.233   6.496  0.0311  0.0265 -0.1943
    1W        W42900   9.861   9.198   8.371 -0.0419  0.0923 -0.1118
    1W        W42901  12.019  23.183   5.740 -0.0094 -0.1312 -0.0423
    1W        W42902  20.263  11.295   9.241 -0.0964  0.1084 -0.2025
    1W        W42903  15.513  10.021   8.239 -0.0410 -0.2183 -0.1139
    1W        W42904  25.815   9.754   8.378  0.1196 -0.2179 -0.1158
    1W        W42905   6.956   5.368   0.230  0.1984  0.1571  0.1816
    1W        W42906   7.799  17.916   0.883 -0.0224 -0.1182  0.2381
    1W        W42907  19.211   4.474   8.586 -0.0424 -0.2083 -0.1321
    1W        W42908  10.279  18.818   8.249 -0.0270 -0.1029 -0.0828
    1W        W42909  14.300  21.675   5.090  0.2408 -0.2303  0.1392
    1W        W42910   4.855  19.177   1.752 -0.1935  0.0343 -0.1836
    1W        W42911  17.920  22.819   7.124  0.1520  0.0143  0.2915
    1W        W42912   7.186   9.034   8.110  0.0897 -0.0997 -0.3057
    1W        W42913  17.035  19.295   0.765  0.0398 -0.3325 -0.0946
    1W        W42914  25.093  24.006   2.747  0.2383 -0.0790  0.0492
    1W        W42915   3.460   8.886   0.622 -0.1256  0.2325 -0.0526
    1W        W42916  12.545  27.215   6.143 -0.3862 -0.4240  0.1803
    1W        W42917  10.497   1.019   7.511 -0.0518 -0.1152 -0.0226
    1W        W42918  15.765  16.974   7.653  0.3411 -0.2387  0.1628
    1W        W42919  26.358  23.653   7.280 -0.1737 -0.0297  0.1869
    1W        W42920  12.820  18.902   0.845 -0.1739  0.2474 -0.1811
    1W        W42921  27.984   3.930   7.924  0.2603 -0.0548  0.1163
    1W        W42922  11.628  22.762   7.425  0.1707 -0.0239  0.0948
    1W        W42923  20.674  21.724   8.481  0.1568 -0.2781 -0.1559
    1W        W42924  25.029  22.358   2.928 -0.2812  0.4283  0.1125
    1W        W42925  18.070  14.058   9.173  0.4050 -0.1973 -0.1101
    1W        W42926   7.419  10.630   8.323 -0.3163  0.0768 -0.1785
    1W        W42927  29.369  16.039   1.049 -0.4954 -0.0150  0.0617
    1W        W42928   5.181  12.768   7.795  0.0932  0.1215 -0.2094
    1W        W42929  17.255   9.741   0.001  0.0092 -0.2366  0.0958
    1W        W42930   5.944  13.039   9.189  0.3209  0.2322 -0.0351
    1W        W42931   7.787   0.144   8.095 -0.1133  0.3819  0.2286
    1W        W42932  20.411  12.126   7.385 -0.1063 -0.3207  0.1165
    1W        W42933  25.168   3.409   7.722 -0.0006  0.1194 -0.0887
    1W        W42934  15.058  17.608   0.322 -0.1502  0.0809 -0.0812
    1W        W42935  27.915  21.294   7.686 -0.2700 -0.1581  0.0470
    1W        W42936   4.872   1.213   6.992  0.0198 -0.0481 -0.0685
    1W        W42937   8.103   2.145   1.866  0.3362 -0.1193 -0.0526
    1W        W42938  27.225  17.970   1.200  0.1455 -0.0024  0.0852
    1W        W42939  12.815  12.534   0.366  0.0837 -0.1450  0.0188
    1W        W42940   3.204   9.049   0.224  0.2368  0.4232 -0.0112
    1W        W42941  13.637  27.301   0.791  0.0982  0.0622 -0.0855
    1W        W42942  26.058  10.935   2.443  0.0665 -0.1521  0.1011
    1W        W42943   9.719   1.373   2.745  0.2349 -0.2919 -0.1030
    1W        W42944  20.317  28.344   0.110 -0.2185 -0.2249 -0.0518
    1W        W42945  28.288   4.622   1.887  0.0543 -0.0071  0.1605
    1W        W42946  24.712  15.880   1.630  0.0752 -0.1531 -0.0012
    1W        W42947  15.238   7.225   9.080 -0.0292 -0.2254 -0.0866
    1W        W42948   5.565  26.051   1.675 -0.1131  0.1006  0.1994
    1W        W42949   5.337  25.474   6.681 -0.0238 -0.0408 -0.2419
    1W        W42950  23.450   9.507   2.195  0.1123 -0.1360  0.0877
    1W        W42951   7.809  17.104   0.000 -0.1218 -0.0224  0.0391
    1W        W42952   9.731   9.680   7.495  0.0924  0.3993 -0.1720
    1W        W42953  14.461   4.667   9.391 -0.0773  0.0679 -0.0319
    1W        W42954  15.870   0.627   8.619 -0.1733  0.1607  0.1325
    1W        W42955  27.572  24.881   7.968  0.1949 -0.1038  0.1579
    1W        W42956  29.455  23.529   6.059 -0.2952  0.2501 -0.0709
    1W        W42957   4.108   0.867   8.969  0.0674  0.2461 -0.0504
    1W        W42958  16.011   8.882   1.348  0.1810 -0.1383 -0.1419
    1W        W42959  19.907  14.340   0.281  0.3937  0.0137 -0.0472
    1W        W42960  19.146  14.249   7.624 -0.2345  0.0314 -0.0724
    1W        W42961  16.326  10.908   7.770 -0.1652 -0.0558  0.3402
    1W        W42962  22.743  29.434   2.219 -0.0984 -0.0127  0.0509
    1W        W42963  17.814   1.858   9.498 -0.1985 -0.2137  0.0818
    1W        W42964   7.017  21.935   8.279  0.0364  0.1914 -0.1452
    1W        W42965   8.737  22.471   7.212  0.0853 -0.0896  0.0740
    1W        W42966  15.066  10.431   0.186  0.1229  0.0316 -0.0008
    1W        W42967   9.751   2.025   0.010  0.0814 -0.1747 -0.1483
    1W        W42968  10.568  20.242   7.436 -0.0364  0.2535 -0.2059
    1W        W42969  14.451   3.968   0.787 -0.0363 -0.1945  0.0530
    1W        W42970  21.636   7.987   8.776  0.0904  0.1702 -0.1284
    1W        W42971  20.652  13.696   1.057 -0.1191  0.1666  0.2707
    1W        W42972   1.436   5.961   1.172 -0.2569  0.0863 -0.0886
    1W        W42973  24.534   6.097   7.892  0.0723  0.1473  0.3592
    1W        W42974  14.120  26.687   0.793  0.1581 -0.0628  0.0920
    1W        W42975   6.673   6.089   2.945  0.0422 -0.0177 -0.1502
    1W        W42976   9.465   6.551   0.251  0.2068 -0.2641 -0.4064
    1W        W42977  14.842   5.332   0.403  0.2802  0.1354 -0.1220
    1W        W42978  26.065  12.992   1.152  0.0490 -0.2677  0.0031
    1W        W42979  14.115   4.324   0.993 -0.2295 -0.0803 -0.1414
    1W        W42980  18.069   4.783   2.555 -0.2380  0.1233  0.1675
    1W        W42981   1.671  11.071   2.639 -0.1082  0.0181  0.0624
    1W        W42982  11.815   6.000   0.675 -0.0656 -0.0164 -0.0634
    1W        W42983  13.303  23.487   8.745  0.0885 -0.0645  0.0830
    1W        W42984   8.662  16.280   8.429 -0.2956 -0.0187 -0.1858
    1W        W42985  13.889  27.044   6.984 -0.0723 -0.0369 -0.0015
    1W        W42986  23.882   6.696   3.007 -0.3893 -0.0307 -0.1085
    1W        W42987  15.248   4.225   3.999 -0.0551  0.1320  0.0626
    1W        W42988  22.082  12.706   1.800 -0.0637 -0.0678  0.0737
    1W        W42989  15.408  25.135   8.925 -0.0968  0.0392 -0.0669
    1W        W42990  27.617   0.065   7.376 -0.0017 -0.1207 -0.3272
    1W        W42991  27.724  11.037   6.971  0.1048  0.0095 -0.0254
    1W        W42992  28.098  19.092   9.090 -0.1125 -0.0035  0.1819
    1W        W42993  14.293  22.372   9.386 -0.0626  0.0895  0.1310
    1W        W42994  29.526  20.979   2.957  0.0801  0.1756 -0.0328
    1W        W42995  27.461   7.995   2.652 -0.1531  0.0778 -0.0532
    1W        W42996   3.150   1.660   3.493  0.2491  0.2678  0.2664
    1W        W42997  18.001  16.519   1.213 -0.3451  0.1697 -0.0304
    1W        W42998   1.284  21.967   0.589 -0.0196  0.0614 -0.0590
    1W        W42999  13.031  13.436   0.347 -0.0138  0.1964  0.1108
    1W        W43000  20.334  26.933   8.767 -0.2337  0.2562 -0.2881
    1W        W43001  23.352  10.229   8.581  0.0946  0.0978  0.0843
    1W        W43002   0.421  15.281   7.466  0.1083 -0.0393  0.4253
    1W        W43003   2.771  21.421   7.343 -0.3507 -0.3324  0.1425
    1W        W43004   5.624   0.068   0.466 -0.3528  0.3001  0.1571
    1W        W43005   8.506  12.912   0.688 -0.3502  0.1563 -0.0812
    1W        W43006   5.077  11.545   0.458 -0.1489  0.0861 -0.1275
    1W        W43007  15.474  19.393   7.398  0.0669 -0.0884 -0.0988
    1W        W43008   4.776  25.372   9.122  0.0551  0.1794  0.1605
    1W        W43009  29.149  23.985   8.920 -0.0144 -0.0835  0.1837
    1W        W43010  27.952  11.212   8.269  0.0762  0.1140  0.0079
    1W        W43011   7.514  15.568   2.359 -0.0985 -0.4276  0.0953
    1W        W43012  15.751   1.525   1.832  0.0456 -0.0530  0.1072
    1W        W43013  19.965   1.101   1.015 -0.1302  0.0358  0.0345
    1W        W43014  20.755   7.938   1.206 -0.1509  0.1102  0.2945
    1W        W43015   2.135  11.196   2.692 -0.1233  0.2181  0.0093
    1W        W43016  20.003   3.372   2.474 -0.0831 -0.0616  0.0207
    1W        W43017   7.331  25.431   7.121 -0.0542  0.0155  0.0322
    1W        W43018  19.763  10.318   0.275  0.1705 -0.1037 -0.4083
    1W        W43019  29.564   2.338   9.091 -0.1509  0.2188  0.2260
    1W        W43020   1.905  23.607   6.766  0.2555 -0.0640 -0.2106
    1W        W43021   4.108  18.753   2.065 -0.1190  0.2083  0.0050
    1W        W43022  26.633  17.024   9.125  0.4521 -0.0607  0.0429
    1W        W43023   7.102  19.396   7.263 -0.1079 -0.0013 -0.0489
    1W        W43024  24.183   1.656   9.219  0.1367  0.1552 -0.2431
    1W        W43025   2.925  16.353   0.775 -0.2054  0.0634 -0.1271
    1W        W43026  26.159  18.697   8.135 -0.0792  0.1992  0.2787
    1W        W43027  28.318   3.392   1.452 -0.1147  0.4135 -0.0221
    1W        W43028  23.497  14.711   1.720  0.1924  0.1617 -0.0644
    1W        W43029  19.691  27.304   0.416 -0.0241  0.0696  0.1123
    1W        W43030   7.786  12.681   6.177  0.1541 -0.0120 -0.3109
    1W        W43031  16.689   7.273   8.476 -0.1833 -0.4808 -0.1103
    1W        W43032  15.250  16.193   6.895 -0.2381  0.1546 -0.0907
    1W        W43033   8.314  27.007   0.957 -0.1464  0.2346 -0.0802
    1W        W43034   4.402  22.462   9.208  0.1457  0.0314 -0.2536
    1W        W43035  16.422  14.635   8.573  0.2191 -0.2597 -0.0648
    1W        W43036   4.072   8.789   1.255  0.1302  0.3295  0.1538
    1W        W43037   4.812   5.270   8.790 -0.1713 -0.1983 -0.0075
    1W        W43038  26.189  18.100   2.066  0.1264  0.0511  0.2429
    1W        W43039   3.474  10.502   8.465 -0.0754  0.3172 -0.3197
    1W        W43040  18.705  28.903   3.145 -0.1169  0.0943 -0.4763
    1W        W43041  10.353   7.842   1.294 -0.2182  0.0310 -0.0849
    1W        W43042  17.245  26.497   1.251 -0.3397 -0.1827  0.1357
    1W        W43043  15.361   1.537   2.177 -0.0932  0.2942  0.0631
    1W        W43044  12.086  11.502   7.488 -0.1264 -0.3216 -0.0362
    1W        W43045   9.251   1.091   2.782  0.3759 -0.1491  0.2927
    1W        W43046  19.100  28.772   8.073 -0.1753  0.0342  0.1757
    1W        W43047  19.173   9.124   9.438 -0.2435  0.1281  0.0964
    1W        W43048   1.960  10.656   0.697 -0.1200 -0.3357  0.0934
    1W        W43049  26.280  26.769   0.281 -0.3364  0.0707  0.1401
    1W        W43050  17.448  28.743   8.714 -0.0664 -0.0495  0.2000
    1W        W43051   3.850   7.200   9.411 -0.1681  0.1217 -0.2893
    1W        W43052  12.129   2.911   3.127 -0.0290  0.0839 -0.2485
    1W        W43053  23.730   6.903   8.042  0.2095  0.1168  0.1609
    1W        W43054   5.279  23.873   1.404 -0.1694 -0.1003  0.2759
    1W        W43055  20.308   5.761   8.607  0.1506 -0.0385 -0.1500
    1W        W43056  12.175  18.408   0.332  0.0181  0.0114 -0.0851
    1W        W43057  26.399   8.707   7.499 -0.4825 -0.2326 -0.0700
    1W        W43058   1.860  10.373   0.273  0.1619  0.3995  0.0070
    1W        W43059   5.360   9.798   1.318  0.1569 -0.2880 -0.2116
    1W        W43060   3.327   5.377   6.858 -0.0297 -0.0178 -0.1362
    1W        W43061  28.347  18.131   7.458 -0.0866  0.0400 -0.1863
    1W        W43062  25.657  23.042   6.302  0.1205  0.1251 -0.0899
    1W        W43063   0.003  20.349   7.578  0.2829  0.0575  0.0429
    1W        W43064   5.235   4.744   3.124 -0.2293  0.1588  0.1195
    1W        W43065  15.591  17.226   5.973 -0.0358 -0.0156  0.2048
    1W        W43066   1.704  23.725   0.929 -0.1121  0.2034  0.2317
    1W        W43067  16.118  26.079   2.327  0.2487 -0.2072  0.0258
    1W        W43068  19.444  15.537   1.683 -0.0208 -0.1535 -0.0398
    1W        W43069  28.233  24.974   7.017  0.0481  0.1121  0.1763
    1W        W43070  15.446   9.272   8.834 -0.3181 -0.2107 -0.0238
    1W        W43071  13.180  25.521   6.640  0.1333 -0.0478 -0.0029
    1W        W43072  22.440  11.379   9.410 -0.0148 -0.0579 -0.1900
    1W        W43073   5.502  15.157   9.465  0.0319  0.1429  0.7509
    1W        W43074   1.453  23.244   1.361 -0.2463  0.3113 -0.0916
    1W        W43075  22.713  11.940   0.970  0.4156  0.2352  0.2351
    1W        W43076   2.685   5.844   1.381 -0.1188 -0.1186  0.0186
    1W        W43077   9.063  26.875   6.361 -0.1503 -0.0686 -0.2552
    1W        W43078  10.515  19.144   7.785 -0.0182  0.0908  0.0598
    1W        W43079   9.057   2.756   0.302  0.0890  0.0182 -0.0412
    1W        W43080  19.402  17.447   8.124 -0.0509 -0.4047 -0.0394
    1W        W43081  21.069  29.629   3.616  0.0610 -0.0475 -0.0954
    1W        W43082  25.001  23.396   1.189  0.3041  0.0899 -0.0999
    1W        W43083   7.755   4.634   1.502  0.1347  0.0585  0.1437
    1W        W43084   0.393  20.116   0.831  0.1817  0.2199  0.0664
    1W        W43085  22.763  15.440   8.955 -0.0688  0.2451  0.0348
    1W        W43086   3.503  22.360   1.867  0.4677  0.1465  0.2542
    1W        W43087  26.335  28.907   2.641  0.3125 -0.1428  0.1924
    1W        W43088  25.978  13.041   2.104 -0.2584  0.1063  0.2177
    1W        W43089   2.219   0.883   1.633 -0.1344 -0.0379  0.2185
    1W        W43090   2.556  23.569   1.054  0.0115 -0.1224  0.0915
    1W        W43091  26.217  14.601   0.214 -0.0609  0.1111 -0.1221
    1W        W43092   6.332  29.855   1.845  0.0396 -0.0315 -0.2113
    1W        W43093  20.599  21.295   2.281  0.0749  0.1899  0.3547
    1W        W43094  12.539  24.107   8.433  0.0365  0.2265 -0.0171
    1W        W43095   7.603  19.976   8.647 -0.0427 -0.1303 -0.3706
    1W        W43096  19.029  21.533   7.133  0.0052 -0.0968  0.3519
    1W        W43097   2.452   3.897   2.335  0.1168  0.2255  0.3451
    1W        W43098  28.038  21.655   6.966 -0.0686  0.0862  0.0766
    1W        W43099  26.339  21.803   9.318  0.3047 -0.1897  0.1481
    1W        W43100  12.034   9.749   0.030  0.3286 -0.2494 -0.0965
    1W        W43101   8.396  12.033   6.641  0.1361  0.2174  0.2156
    1W        W43102   3.617   5.074   6.539 -0.3485  0.2341  0.1553
    1W        W43103   0.244   0.427   0.791  0.0966  0.1466 -0.0107
    1W        W43104   3.531   1.199   0.944 -0.1761  0.0931  0.2609
    1W        W43105   1.571  12.682   6.201  0.0243 -0.2109  0.0415
    1W        W43106  25.421  18.285   6.708 -0.1817  0.0644  0.0290
    1W        W43107  13.822   1.132   2.403  0.0114  0.1332 -0.4938
    1W        W43108  16.435   6.938   9.173 -0.1578 -0.0261  0.1664
    1W        W43109   7.231  20.780   1.624  0.2335  0.2713  0.2408
    1W        W43110   8.341   3.233   3.500 -0.1751 -0.0957  0.1379
    1W        W43111  18.312  10.696   1.049  0.1510  0.0423 -0.2761
    1W        W43112  12.966  18.709   8.178  0.0264  0.0514  0.1830
    1W        W43113   1.709  16.885   7.577 -0.3270 -0.1267 -0.0509
    1W        W43114  18.186  23.157   0.772  0.1776 -0.4097 -0.1001
    1W        W43115  14.429  14.899   1.685 -0.3945 -0.1284  0.0621
    1W        W43116   4.375  17.800   5.999 -0.1490  0.1870 -0.0114
    1W        W43117   0.333  17.022   0.868 -0.0567  0.2784  0.0016
    1W        W43118  23.514  19.344   6.728 -0.0551 -0.1208 -0.0054
    1W        W43119  28.707  27.469   1.318 -0.0478 -0.0073  0.0943
    1W        W43120  20.030  27.423   0.045 -0.2523  0.1861 -0.2963
    1W        W43121  27.240   4.390   9.295  0.0990  0.0516  0.0293
    1W        W43122  12.867  29.786   1.740 -0.2427 -0.0120 -0.2277
    1W        W43123   9.885  14.868   9.139  0.3085  0.0254 -0.2090
    1W        W43124   7.205  20.041   1.834  0.0168 -0.1190  0.0054
    1W        W43125  20.653   3.719   1.202 -0.0163  0.1587  0.3772
    1W        W43126  10.199  15.287   7.160  0.0508 -0.1964  0.1291
    1W        W43127   9.783  13.132   0.190  0.1358 -0.1391 -0.1146
    1W        W43128  21.789  12.014   7.257  0.1603  0.0279  0.0902
    1W        W43129   5.843  16.177   1.450 -0.0116 -0.2620  0.4976
    1W        W43130  20.016  22.583   7.702 -0.1390  0.0290 -0.1335
    1W        W43131  23.882  21.491   8.505 -0.0455 -0.0379 -0.4689
    1W        W43132  27.285   1.229   9.229  0.1717 -0.0710 -0.0421
    1W        W43133  21.594   3.742   1.883 -0.0523 -0.0561  0.1207
    1W        W43134  19.887  23.883   7.395 -0.0150 -0.1119  0.2363
    1W        W43135  29.569   5.376   8.522 -0.2494  0.1531 -0.1102
    1W        W43136   2.953   6.992   2.580 -0.0316  0.1384 -0.0884
    1W        W43137  18.277  10.500   0.569 -0.3870 -0.3733  0.1828
    1W        W43138  20.397  29.365   7.911 -0.3988 -0.0655  0.1428
    1W        W43139   4.016  14.407   1.471 -0.1682  0.0689 -0.1980
    1W        W43140   7.820   9.017   8.347  0.0455  0.3008  0.1072
    1W        W43141  15.617   2.691   3.003  0.1348  0.0553 -0.0648
    1W        W43142  17.891  27.540   0.281 -0.2047 -0.0190  0.1146
    1W        W43143  19.259  17.293   0.835 -0.0752  0.0775  0.0013
    1W        W43144   9.025   6.488   0.573 -0.0175 -0.0289  0.0151
    1W        W43145   6.829  16.583   7.639  0.0491  0.0704 -0.3758
    1W        W43146   1.615  14.529   8.984 -0.0082  0.1291  0.2853
    1W        W43147   3.767   4.092   2.640  0.2368  0.1152 -0.1093
    1W        W43148  15.258  10.810   9.422  0.2826  0.2949  0.1938
    1W        W43149  21.684  19.742   8.845 -0.0129 -0.0293 -0.2704
    1W        W43150  23.336  11.014   8.458 -0.1820  0.0320 -0.2171
    1W        W43151  15.942   7.804   2.363  0.0706 -0.0176 -0.0424
    1W        W43152   5.942  28.404   5.538  0.0510 -0.1572 -0.0512
    1W        W43153   5.835   3.640   7.721  0.2724  0.2331 -0.1959
    1W        W43154   9.464   0.005   7.639  0.0364  0.0245 -0.1943
    1W        W43155  15.912  24.326   0.786 -0.2377 -0.2361 -0.1400
    1W        W43156  27.191  19.561   2.034  0.0950  0.0552 -0.1127
    1W        W43157  27.503  21.964   8.616  0.2245 -0.1528  0.3591
    1W        W43158  29.773   9.922   0.204  0.1031  0.0848 -0.1771
    1W        W43159  14.106  29.517   1.095  0.1054  0.2234  0.0038
    1W        W43160   7.876  15.176   0.170  0.0442  0.2641  0.1971
    1W        W43161  10.581  26.824   9.265 -0.0128 -0.2367  0.0478
    1W        W43162  18.211   4.745   0.148 -0.0501  0.0206  0.0716
    1W        W43163  21.060   6.549   1.768 -0.1963  0.4721 -0.0452
    1W        W43164   4.624   9.045   9.242 -0.2355  0.1463 -0.0665
    1W        W43165   2.345   2.973   2.760 -0.2590  0.1565  0.1148
    1W        W43166  20.949  23.609   8.390  0.0776 -0.1322 -0.0070
    1W        W43167  28.892  13.101   1.869 -0.1047  0.0681  0.0703
    1W        W43168  13.814  26.851   7.522 -0.0578  0.0255  0.3534
    1W        W43169   2.480   7.448   2.061  0.1037 -0.1641  0.2474
    1W        W43170   5.341   3.814   0.591  0.0729  0.0602  0.1947
    1W        W43171  27.199  17.371   7.418  0.1424  0.2199 -0.1325
    1W        W43172  14.985   0.415   8.501 -0.0398  0.1177 -0.2576
    1W        W43173  23.298  25.076   6.942 -0.1366 -0.1577  0.0972
    1W        W43174   8.131  20.676   6.653 -0.0602 -0.0862 -0.0128
    1W        W43175  24.155  11.373   0.512 -0.0038 -0.1130 -0.0486
    1W        W43176  11.446  25.435   8.731  0.1177 -0.2368  0.0532
    1W        W43177  18.106  18.603   8.398  0.0185  0.1961 -0.1954
    1W        W43178   6.216   2.949   2.231  0.3055  0.1697 -0.0712
    1W        W43179  18.767  24.030   1.442 -0.1637  0.0528 -0.2121
    1W        W43180  12.078   3.004   1.849  0.0679  0.0509  0.0941
    1W        W43181  15.470  25.622   8.886 -0.1015 -0.1281 -0.3004
    1W        W43182  27.828   2.835   6.297 -0.0594 -0.4477 -0.0717
    1W        W43183  15.310   8.878   0.713 -0.1622 -0.0142 -0.3636
    1W        W43184   5.478  27.876   1.360  0.0227 -0.2382  0.0023
    1W        W43185   6.094   4.967   8.995  0.3272 -0.1795 -0.0317
    1W        W43186  29.403   2.245   8.623  0.0648  0.1274  0.4888
    1W        W43187  28.455  17.676   2.323 -0.1676 -0.0818  0.0752
    1W        W43188  18.199   5.211   9.382 -0.1031 -0.0938  0.1087
    1W        W43189   3.066  11.464   8.769  0.1325 -0.2356  0.0155
    1W        W43190   5.634   6.099   1.898  0.0524  0.1844  0.2161
    1W        W43191   7.362  24.700   6.394  0.1074  0.0435 -0.1838
    1W        W43192  10.490   4.902   7.788 -0.2557  0.1772  0.4313
    1W        W43193  12.147  22.435   6.767 -0.1543 -0.0672 -0.1488
    1W        W43194  17.273  13.713   9.313 -0.0468  0.2117 -0.2323
    1W        W43195   1.066   7.864   1.943 -0.1942 -0.0058  0.1177
    1W        W43196  28.240   2.035   8.829  0.3762 -0.4140 -0.0805
    1W        W43197  21.039  10.516   8.965  0.1315  0.2942 -0.0019
    1W        W43198   4.363   5.732   0.406 -0.0087 -0.1135 -0.0473
    1W        W43199  10.584   2.723   7.508  0.1229 -0.2371  0.2326
    1W        W43200  15.468   3.980   7.674  0.2839  0.1132 -0.0814
    1W        W43201   8.238   5.850   9.251 -0.0240 -0.4059  0.1418
    1W        W43202  17.584  18.708   6.083  0.2737 -0.2954 -0.0979
    1W        W43203  24.059  27.354   2.659 -0.1083  0.1223 -0.3695
    1W        W43204  29.674  15.914   6.857  0.0204 -0.3244  0.2230
    1W        W43205   2.562   9.666   9.481 -0.5080 -0.4063 -0.0096
    1W        W43206  21.708  15.626   1.493 -0.0579  0.0866 -0.2429
    1W        W43207  13.528  23.852   0.711 -0.1129  0.2281  0.0850
    1W        W43208  21.778  14.665   7.736 -0.0775  0.0207  0.0597
    1W        W43209  18.544  18.759   9.191  0.0448  0.0803 -0.3397
    1W        W43210   6.174  28.961   1.802  0.0405  0.1044  0.1086
    1W        W43211  19.804  25.144   7.334  0.0344  0.1887  0.1167
    1W        W43212  19.207  26.977   8.764  0.0686 -0.1660 -0.1577
    1W        W43213  21.614   9.012   8.460  0.1620 -0.2580 -0.3486
    1W        W43214   7.519  11.845   7.180 -0.1778 -0.0104  0.0361
    1W        W43215  28.424   3.968   6.304  0.0909 -0.3756  0.0069
    1W        W43216  22.058   0.279   2.759 -0.1295 -0.2387 -0.0680
    1W        W43217   2.833  16.722   8.702  0.1204 -0.1126  0.1952
    1W        W43218  17.331   6.046   8.209  0.0424 -0.0216 -0.0533
    1W        W43219  26.644   3.559   9.344 -0.2534  0.2390  0.0877
    1W        W43220  28.834  18.995   1.821 -0.0299 -0.0353  0.0239
    1W        W43221   0.990  22.524   8.567  0.1564 -0.0168  0.1378
    1W        W43222  11.393  16.957   1.019 -0.1271 -0.0211  0.1014
    1W        W43223   6.685  21.757   9.428  0.3666 -0.0891  0.2324
    1W        W43224  22.719  15.786   0.669 -0.3249  0.3061  0.0180
    1W        W43225  14.811   1.229   8.978  0.2517 -0.3238  0.1573
    1W        W43226  19.194   1.963   3.711  0.0338 -0.3602  0.2896
    1W        W43227   8.149  16.886   6.801 -0.1517 -0.2854  0.1607
    1W        W43228  17.643  18.712   0.662 -0.0362 -0.0062  0.3066
    1W        W43229  12.732  14.254   0.966 -0.0969 -0.1630 -0.1183
    1W        W43230   5.768   2.139   8.489 -0.1790  0.4202 -0.1345
    1W        W43231  12.695   5.777   8.450  0.1715  0.1214  0.0895
    1W        W43232  24.248  20.412   0.794 -0.1052  0.0735 -0.0011
    1W        W43233  11.831   1.323   8.152  0.1720  0.2374  0.1710
    1W        W43234  10.845  24.213   6.913  0.3068 -0.0337  0.1609
    1W        W43235  12.423   0.781   1.490  0.0929 -0.0402 -0.0113
    1W        W43236  27.151   7.534   1.453  0.0413  0.0749  0.1720
    1W        W43237  14.079   3.948   1.359  0.1476 -0.2113  0.2709
    1W        W43238  14.164   2.171   0.771 -0.0167  0.1255  0.0002
    1W        W43239  28.448   3.775   3.470  0.1589 -0.0510  0.0630
    1W        W43240  28.885  20.327   8.256 -0.0879 -0.1493  0.0686
    1W        W43241  27.559  20.096   0.775  0.1541  0.1239  0.1504
    1W        W43242   9.406  24.799   1.208 -0.0313 -0.1289 -0.2218
    1W        W43243   4.472   2.442   2.214 -0.1141 -0.1048  0.1179
    1W        W43244  24.358   3.664   9.346 -0.3937  0.0819  0.0293
    1W        W43245  10.706  26.221   0.934 -0.0999  0.2543 -0.2960
    1W        W43246   3.857  16.617   0.719 -0.1065  0.2701  0.0847
    1W        W43247  12.814  21.395   0.329 -0.1591 -0.0672 -0.3023
    1W        W43248  27.515  29.713   9.172  0.3195 -0.3973  0.1018
    1W        W43249  26.772  29.496   1.824  0.0320 -0.1993  0.1152
    1W        W43250   6.164  15.714   0.291 -0.0925  0.1253  0.0339
    1W        W43251   5.896  16.408   5.960 -0.2010  0.1808 -0.0706
    1W        W43252  11.430   1.471   7.810 -0.1542 -0.0974  0.0843
    1W        W43253   4.508  22.562   1.945  0.1826 -0.2090 -0.3482
    1W        W43254  22.589  14.061   0.134 -0.0052 -0.0674  0.2379
    1W        W43255  11.408   0.785   2.888  0.0006  0.0944 -0.1729
    1W        W43256  13.197  16.102   8.267  0.6854 -0.0897 -0.1544
    1W        W43257   6.735   6.262   7.619 -0.2307  0.2520  0.0219
    1W        W43258  28.999  22.073   8.923  0.0912  0.1264 -0.1638
    1W        W43259  26.992  18.250   2.498 -0.0270 -0.1621 -0.0646
    1W        W43260  29.151   2.579   7.524 -0.0942 -0.0078 -0.0401
    1W        W43261  23.644   1.678   2.682 -0.1205  0.1332 -0.1028
    1W        W43262   6.020   6.004   0.567  0.0255  0.1413 -0.2210
    1W        W43263   5.913  10.318   2.824 -0.2994 -0.2577 -0.1541
    1W        W43264  28.612  15.388   8.758 -0.2695  0.0981 -0.1490
    1W        W43265   5.214   1.479   1.190 -0.2007 -0.3800 -0.0923
    1W        W43266  14.239   3.432   1.427 -0.0391 -0.1522 -0.2024
    1W        W43267   8.519  25.187   0.316 -0.3259  0.1096  0.1379
    1W        W43268  24.425   6.667   9.454 -0.3033 -0.2041 -0.0812
    1W        W43269  20.320  17.975   6.771  0.1493  0.0385 -0.0833
    1W        W43270   9.491  19.864   0.897 -0.0218 -0.0346  0.2308
    1W        W43271  11.406  26.649   6.573  0.2352 -0.1057 -0.1097
    1W        W43272  28.826  24.270   6.283 -0.2563 -0.0309  0.1048
    1W        W43273  18.990  18.625   2.384 -0.2757 -0.5496  0.1298
    1W        W43274  19.745  14.140   8.212 -0.0945  0.0750 -0.1288
    1W        W43275  22.618  15.009   8.796 -0.1228 -0.0266  0.3269
    1W        W43276  20.428  21.457   0.077  0.0261 -0.2372  0.0346
    1W        W43277  15.080  15.682   8.052 -0.1133  0.3172  0.0458
    1W        W43278   6.810  26.346   9.147  0.0676  0.0796 -0.2128
    1W        W43279  23.823  13.182   8.018 -0.0894 -0.0472 -0.0753
    1W        W43280   2.553  11.601   6.657  0.1171  0.3891  0.0273
    1W        W43281   2.128  20.523   0.742  0.3488 -0.4775  0.0030
    1W        W43282  18.392  14.616   7.434 -0.0664  0.2200 -0.0509
    1W        W43283   9.446  12.897   1.050 -0.1024 -0.0302  0.2609
    1W        W43284   6.173  24.921   2.817 -0.1011 -0.1443  0.1929
    1W        W43285   6.728   9.074   1.539 -0.2275  0.0973 -0.1918
    1W        W43286   0.712   3.224   0.107  0.0685 -0.0129 -0.0532
    1W        W43287   9.591   3.694   0.851 -0.1131  0.0409  0.3041
    1W        W43288  25.237   3.390   8.219  0.0099  0.0145  0.1375
    1W        W43289  27.508   4.030   0.013  0.0136 -0.0051  0.1601
    1W        W43290  11.849  11.484   1.767 -0.2611 -0.1994  0.0901
    1W        W43291  15.805   5.860   0.579 -0.2971  0.1894 -0.0058
    1W        W43292   6.740  29.406   7.057 -0.0371 -0.2125 -0.3105
    1W        W43293   6.402  23.554   8.225  0.1908  0.1513 -0.1517
    1W        W43294   5.251  23.767   1.859 -0.1623 -0.1034 -0.0797
    1W        W43295  14.947   1.174   2.199  0.1499 -0.0703 -0.0317
    1W        W43296   6.412   3.871   1.998  0.0826  0.0389  0.0034
    1W        W43297   1.778   3.931   0.706  0.1165  0.0063  0.0999
    1W        W43298  15.342   4.070   1.384 -0.0148  0.0375 -0.2403
    1W        W43299   2.187  19.542   8.108  0.1944 -0.2151 -0.1347
    1W        W43300  19.275  27.168   2.863  0.3408  0.2015  0.0069
    1W        W43301   6.057   2.373   7.581  0.0010  0.0493  0.2960
    1W        W43302  14.985  13.222   7.812  0.0339  0.0732 -0.0017
    1W        W43303  23.518  21.384   8.147  0.1265 -0.2923  0.0355
    1W        W43304  27.773  15.833   2.010  0.2419 -0.1002  0.4271
    1W        W43305  29.547  26.614   7.765 -0.2037 -0.0662 -0.0648
    1W        W43306  26.718  20.537   7.968  0.0051  0.1341 -0.0196
    1W        W43307  28.710   9.957   1.447  0.1084 -0.1885 -0.3663
    1W        W43308   4.251  16.475   9.376 -0.0241  0.3434  0.4837
    1W        W43309  20.891  26.415   1.459  0.0947 -0.2291  0.1310
    1W        W43310   6.945   6.308   2.178  0.0646 -0.1562 -0.2743
    1W        W43311  25.673   6.177   0.484  0.3915 -0.2719 -0.1349
    1W        W43312  10.954  15.835   0.855  0.2548 -0.0110 -0.2976
    1W        W43313  14.644  12.022   9.467 -0.0214 -0.0008  0.1688
    1W        W43314  14.856   9.453   9.461 -0.2326 -0.4034  0.0312
    1W        W43315   6.763  26.891   0.037 -0.2944  0.0593  0.1364
    1W        W43316   2.495  19.650   0.462  0.0266  0.0339 -0.1671
    1W        W43317  12.297  11.370   2.510 -0.1505 -0.0690 -0.2193
    1W        W43318  20.508  26.752   7.544 -0.0133 -0.1770 -0.0186
    1W        W43319  15.760  28.613   0.844  0.1085 -0.0879  0.2245
    1W        W43320  14.581  17.874   1.064  0.0345  0.2926 -0.0383
    1W        W43321  20.577   8.666   9.164 -0.2938  0.1324  0.0946
    1W        W43322   9.081  13.767   6.287  0.5355 -0.4739 -0.2475
    1W        W43323  10.027  18.562   0.670 -0.0986 -0.0063  0.0398
    1W        W43324  15.258  15.856   8.552  0.3326 -0.0626 -0.1793
    1W        W43325   1.886   7.774   0.668  0.2191  0.0672 -0.3892
    1W        W43326   0.116  18.518   2.616 -0.1236 -0.2522 -0.1996
    1W        W43327  12.969   5.454   7.561 -0.2270 -0.2198 -0.0631
    1W        W43328  14.084  25.760   8.758  0.1056 -0.3760  0.1182
    1W        W43329  23.812  29.475   8.238 -0.2811  0.0975  0.1117
    1W        W43330  19.438  18.348   7.421  0.1590  0.1015 -0.2095
    1W        W43331  13.968   6.348   3.552 -0.0629  0.0929  0.2237
    1W        W43332  22.832  29.191   2.741 -0.1224 -0.1096 -0.0780
    1W        W43333  14.377  16.571   5.545  0.5058 -0.0983 -0.0114
    1W        W43334  18.991   9.398   0.459  0.2023  0.3885  0.0464
    1W        W43335  21.202  29.477   8.326 -0.0573  0.2162  0.4259
    1W        W43336  11.129  23.227   6.706  0.2733 -0.0642 -0.2483
    1W        W43337  19.164  13.214   9.062  0.0557  0.0662  0.0160
    1W        W43338  27.661   2.101   1.344  0.1789  0.0257 -0.1098
    1W        W43339  20.952  11.748   7.566  0.2604  0.3400  0.2415
    1W        W43340   7.843  29.376   1.493 -0.1435  0.1091  0.2785
    1W        W43341  27.673   0.840   9.364  0.2327 -0.0583 -0.0802
    1W        W43342   7.713  23.606   8.687 -0.1141  0.0032  0.0106
    1W        W43343  25.284  12.887   1.269 -0.3533  0.3673  0.0879
    1W        W43344  15.243  15.392   9.392 -0.0157 -0.2219 -0.0123
    1W        W43345  28.609  26.930   8.650  0.4473 -0.1125  0.3465
    1W        W43346  23.714  29.692   1.184  0.0793  0.1425  0.1696
    1W        W43347  15.011   5.067   2.686 -0.1216  0.1842  0.1238
    1W        W43348  12.971  27.961   7.506  0.3515 -0.0563  0.1255
    1W        W43349  15.199   5.197   4.037  0.3851  0.1238  0.0506
    1W        W43350  11.145  27.201   8.486  0.1688  0.1797 -0.1629
    1W        W43351  21.443  23.446   1.347 -0.2406 -0.1620  0.2011
    1W        W43352   4.529  27.002   8.452 -0.4067 -0.2576 -0.1027
    1W        W43353  11.599  17.665   8.311  0.1406 -0.0800  0.1229
    1W        W43354   5.231  18.142   8.640 -0.0488 -0.1278 -0.2728
    1W        W43355  20.020   1.837   0.587  0.1728  0.1835  0.0901
    1W        W43356   6.166  14.400   9.244  0.2622 -0.0221  0.0603
    1W        W43357  11.425  29.277   9.129  0.2027 -0.1030 -0.0310
    1W        W43358  16.948  16.221   8.814  0.1279  0.2175  0.0760
    1W        W43359  17.988  16.965   1.510  0.2446  0.0150  0.0051
    1W        W43360  12.237  27.891   0.277  0.4490 -0.1055  0.0951
    1W        W43361  18.249   7.096   8.535  0.2997 -0.2028  0.1505
    1W        W43362  15.606  13.184   0.258 -0.1656  0.1938 -0.0079
    1W        W43363  22.131   0.027   1.716  0.0565 -0.1590 -0.0532
    1W        W43364   4.721  16.738   0.725  0.2649 -0.0325  0.2381
    1W        W43365  11.854  29.238   7.722  0.1307 -0.2262 -0.2359
    1W        W43366   4.650  11.307   0.391 -0.2193  0.0044  0.0891
    1W        W43367  21.766  21.422   7.623  0.1232 -0.1970 -0.0006
    1W        W43368   6.986  20.842   1.039 -0.0804  0.3836  0.1406
    1W        W43369  20.019  11.750   7.926 -0.0956  0.0154 -0.0771
    1W        W43370  26.070  20.833   2.225 -0.3230  0.2154  0.1848
    1W        W43371   5.182   7.539   2.929  0.0635 -0.0896  0.1506
    1W        W43372   4.314  23.766   7.214  0.0274 -0.1165  0.1769
    1W        W43373  20.525  12.730   0.393 -0.0846 -0.2583 -0.0276
    1W        W43374  14.100  28.136   8.039  0.1081  0.1750 -0.5169
    1W        W43375  14.194  18.049   0.737 -0.1214  0.0837 -0.0801
    1W        W43376  28.694  29.367   8.059  0.1276 -0.1150 -0.0750
    1W        W43377  18.592  21.726   0.958 -0.2756  0.1039  0.1325
    1W        W43378  23.168  17.215   8.988 -0.0805  0.0644  0.3073
    1W        W43379  23.691  18.844   1.589  0.0650  0.2523  0.0785
    1W        W43380  21.823  21.863   6.203  0.2989 -0.1384  0.1333
    1W        W43381  11.163   5.265   0.932  0.2879 -0.0746 -0.0607
    1W        W43382  24.199   0.059   7.398  0.0689  0.1155 -0.2892
    1W        W43383  27.219   1.671   8.030  0.1453  0.1374  0.0169
    1W        W43384  17.355  13.152   7.830 -0.4304 -0.0982  0.2328
    1W        W43385  25.051   3.133   9.080  0.0037  0.0647  0.2176
    1W        W43386  12.840   2.794   8.105  0.1358 -0.1741  0.1834
    1W        W43387  23.041  25.077   1.642  0.2807  0.1149 -0.1795
    1W        W43388  18.684  26.479   0.830  0.2181 -0.2757 -0.2508
    1W        W43389  19.254   7.464   2.213 -0.1368  0.0575  0.0739
    1W        W43390   3.946   0.655   8.032  0.1599 -0.0473  0.1280
    1W        W43391  23.546  10.183   0.479 -0.1781  0.1051  0.0393
    1W        W43392  23.165  12.834   1.631 -0.1803  0.1595  0.0042
    1W        W43393  24.606  25.114   8.562 -0.1495 -0.1667  0.0918
    1W        W43394   1.445  21.464   1.981  0.0865  0.1446 -0.2551
    1W        W43395  22.014   8.823   9.274  0.1612  0.2667  0.2362
    1W        W43396   8.812  18.863   0.520 -0.0114 -0.0362  0.3829
    1W        W43397  19.934   5.976   8.888  0.1928 -0.1123  0.0579
    1W        W43398  19.985  24.518   0.618  0.1785  0.0524 -0.1663
    1W        W43399  10.137  11.108   9.115  0.3664  0.0919 -0.1138
    1W        W43400  15.338  23.849   5.068  0.2136 -0.0570 -0.1195
    1W        W43401   6.673  25.973   6.620 -0.0435  0.1120 -0.0036
    1W        W43402  27.135  14.967   1.320 -0.0612  0.0037  0.2048
    1W        W43403  13.049  19.547   6.851 -0.0673  0.1333  0.2355
    1W        W43404  24.259   0.020   2.128 -0.0221  0.0123 -0.2702
    1W        W43405  18.032  23.153   8.930 -0.1862  0.1531  0.0260
    1W        W43406  22.207   4.753   0.484 -0.1873  0.1495  0.2250
    1W        W43407  27.874  11.010   0.106  0.1263 -0.0390  0.1070
    1W        W43408  23.362  24.363   7.272  0.0749 -0.4215 -0.0020
    1W        W43409   6.583  14.816   7.050 -0.2415  0.3149 -0.1561
    1W        W43410  14.551  23.182   8.840  0.0606  0.1980  0.2278
    1W        W43411  24.220   3.999   2.152 -0.0450 -0.0985 -0.0501
    1W        W43412  28.120  22.742   1.751 -0.0706  0.0624  0.0138
    1W        W43413   3.428   7.267   0.566 -0.4235  0.0438  0.3065
    1W        W43414  14.305  29.613   9.311 -0.1154  0.0419  0.1449
    1W        W43415  21.654   5.649   2.753  0.2750 -0.1624 -0.1746
    1W        W43416   9.162  11.904   1.544 -0.1379  0.1207  0.1633
    1W        W43417   1.936   7.817   8.948  0.2713 -0.1035  0.2344
    1W        W43418  10.535  24.740   0.707  0.1876 -0.2304  0.2888
    1W        W43419   4.713  13.988   1.868  0.1258 -0.3261 -0.0669
    1W        W43420  11.770   2.325   7.968 -0.1004 -0.1495 -0.2830
    1W        W43421  16.302  19.291   7.120  0.0756 -0.0553 -0.0265
    1W        W43422  13.735  17.281   2.430  0.0173  0.1866 -0.0967
    1W        W43423  20.719   0.397   1.577  0.0071 -0.0382 -0.1227
    1W        W43424  23.911   7.847   1.894  0.1205  0.1556 -0.4280
    1W        W43425  16.708   0.552   2.826  0.0148  0.2915 -0.5173
    1W        W43426  20.022  27.377   1.443 -0.2385  0.3108 -0.0995
    1W        W43427  14.280   4.693   3.323 -0.0621 -0.0162  0.1390
    1W        W43428  10.119   6.044   1.564  0.1340 -0.2356  0.0251
    1W        W43429  15.196  11.673   2.167  0.2428 -0.1398  0.0101
    1W        W43430  12.891  28.477   0.874 -0.2680  0.4383  0.0307
    1W        W43431  25.409  20.486   6.915 -0.0760 -0.1193  0.3968
    1W        W43432  28.859   4.858   0.832  0.0761  0.2080 -0.0139
    1W        W43433  21.978   7.579   2.178  0.2482  0.0563  0.0788
    1W        W43434  22.531  16.434   6.570 -0.1726 -0.1645  0.0095
    1W        W43435   1.372  28.166   7.585  0.0803  0.1213  0.0452
    1W        W43436  22.634  26.464   2.557  0.0471 -0.3701  0.0758
    1W        W43437   4.624  17.158   6.872  0.0884  0.2186 -0.0204
    1W        W43438  14.624   3.277   1.913 -0.1752  0.0732 -0.0114
    1W        W43439  22.693  16.157   7.784  0.1288 -0.2278  0.1508
    1W        W43440   1.766  22.193   8.618 -0.4343 -0.1093 -0.1023
    1W        W43441   4.716   9.358   6.474 -0.1021  0.1136  0.0050
    1W        W43442  29.239  21.950   0.834  0.3798 -0.1229  0.2173
    1W        W43443  25.186   6.217   2.174 -0.4119  0.2057  0.0804
    1W        W43444  16.675  22.548   6.691 -0.2290 -0.2130  0.1792
    1W        W43445   1.876  20.585   7.356  0.2772  0.0097 -0.1829
    1W        W43446  10.780  18.085   1.825 -0.4680 -0.0084 -0.2246
    1W        W43447  17.916  21.112   6.436 -0.2991  0.1621  0.1289
    1W        W43448  15.779  16.526   8.353 -0.2062 -0.1543  0.1244
    1W        W43449   6.328   7.770   1.431  0.2189  0.3937 -0.2685
    1W        W43450  22.982  19.103   8.597 -0.1515  0.0762  0.0764
    1W        W43451  15.828  16.015   8.239 -0.3039 -0.0308  0.0434
    1W        W43452   9.428  12.489   8.956  0.0393  0.1279 -0.0962
    1W        W43453  24.826   5.684   2.902  0.1123 -0.1245 -0.3276
    1W        W43454  22.144  16.389   1.935 -0.2043 -0.1513 -0.1891
    1W        W43455  13.960  15.773   9.453 -0.1536  0.2709 -0.0407
    1W        W43456  28.302  18.401   1.931  0.2478 -0.0038 -0.0515
    1W        W43457  13.069  21.172   9.423  0.3275  0.1366 -0.2133
    1W        W43458  14.927  14.866   8.299 -0.1849  0.0343 -0.0475
    1W        W43459   8.212   6.152   0.758 -0.1159 -0.1014  0.0697
    1W        W43460  10.180  17.004   9.191  0.2910  0.0369  0.0323
    1W        W43461   7.368  28.640   1.024  0.0009  0.0169 -0.1926
    1W        W43462   5.376  25.524   0.919  0.0352  0.3218 -0.1609
    1W        W43463  14.461  10.827   1.069 -0.1343  0.0940  0.0175
    1W        W43464  28.342   1.444   0.113  0.0986  0.1499  0.1147
    1W        W43465   7.941  28.135   8.964  0.5066 -0.2616 -0.0895
    1W        W43466   7.720  23.364   7.244 -0.4066  0.2071 -0.2672
    1W        W43467  27.544  29.278   6.442  0.1537  0.0293 -0.1630
    1W        W43468  10.033  11.780   8.802 -0.0438 -0.1336  0.1827
    1W        W43469  25.820   3.072   3.254  0.2274  0.1351 -0.0617
    1W        W43470   8.899   2.266   0.587 -0.2259 -0.1078  0.1200
    1W        W43471   5.830   6.851   8.703  0.1601 -0.2628  0.0383
    1W        W43472  27.157  27.281   0.559  0.4712  0.2619  0.2609
    1W        W43473  23.287  14.632   2.141 -0.0838 -0.1810  0.4204
    1W        W43474  10.828  19.462   1.945  0.1275  0.1523  0.2213
    1W        W43475  11.825  14.538   7.670  0.0866 -0.1585  0.0169
    1W        W43476  15.522  16.956   6.359  0.1188  0.1726 -0.2358
    1W        W43477   5.594  25.088   7.112 -0.0261 -0.0536 -0.2034
    1W        W43478  22.326  25.199   0.500 -0.1775 -0.0141 -0.0157
    1W        W43479  16.348  20.372   8.763  0.0556 -0.0694  0.0167
    1W        W43480  27.525  23.100   9.139 -0.0710  0.2687  0.1951
    1W        W43481  22.344   9.862   0.745 -0.2628  0.0232  0.0601
    1W        W43482   1.266  20.359   0.929  0.0117  0.1376  0.4057
    1W        W43483  13.908   1.959   1.247 -0.1210 -0.2520  0.1198
    1W        W43484  25.269  11.899   0.272 -0.3546  0.1940  0.0892
    1W        W43485  21.494  26.647   1.440  0.0676  0.0765 -0.4374
    1W        W43486  14.420   6.858   2.731 -0.1291 -0.1374 -0.1076
    1W        W43487   4.512  21.333   7.333  0.2468  0.1888  0.1078
    1W        W43488  12.144   2.499   0.498  0.2176  0.2251 -0.0955
    1W        W43489  24.016  19.729   1.764  0.0994 -0.2135 -0.0690
    1W        W43490  10.732  29.842   8.020 -0.5636 -0.1546  0.2730
    1W        W43491  16.801   7.738   1.740 -0.2665  0.0242  0.0938
    1W        W43492   4.924  26.733   9.447  0.1468 -0.0608 -0.1784
    1W        W43493  14.605  22.740   0.962  0.0466  0.1476  0.1884
    1W        W43494  19.209  20.424   1.372  0.3545 -0.0720  0.2111
    1W        W43495  13.036  10.959   0.196  0.0897 -0.1929 -0.0882
    1W        W43496  28.605  18.108   0.085 -0.3008  0.1096  0.0289
    1W        W43497   0.570  10.093   7.849 -0.2574 -0.2312 -0.2336
    1W        W43498   3.905  15.738   0.841  0.3473  0.0597 -0.0301
    1W        W43499  22.566  24.812   1.350 -0.1711  0.1850 -0.0927
    1W        W43500  25.052   5.952   3.956 -0.1061  0.0759  0.0082
    1W        W43501  18.320  24.077   1.194 -0.2318  0.3422 -0.0362
    1W        W43502   8.894   0.810   8.847 -0.1603 -0.1604  0.0786
    1W        W43503  25.498  11.354   0.643  0.1287  0.3489  0.0949
    1W        W43504  23.405  19.988   2.819 -0.2027  0.2676 -0.0460
    1W        W43505  18.943  20.542   5.932 -0.1507 -0.0785 -0.0303
    1W        W43506  19.427  24.193   5.415  0.0207 -0.1582  0.1064
    1W        W43507  25.194  17.656   1.903 -0.0305 -0.0184  0.0864
    1W        W43508  12.411  19.268   6.381  0.2380  0.2394 -0.0853
    1W        W43509  10.031   2.328   1.082  0.2380  0.2120 -0.1566
    1W        W43510  27.650  29.452   2.165 -0.4435  0.1067  0.1958
    1W        W43511  21.514  16.609   0.112 -0.0876 -0.0277  0.0858
    1W        W43512  23.081  13.914   2.081  0.1707  0.2580 -0.1674
    1W        W43513  21.855  26.829   6.331  0.0622  0.1057 -0.0907
    1W        W43514   1.653  15.166   1.268  0.2735  0.1407 -0.1624
    1W        W43515  22.317  27.273   7.043 -0.4092 -0.4708 -0.0190
    1W        W43516  20.499  19.239   8.574  0.0586 -0.3668  0.2717
    1W        W43517  14.493  14.606   7.473  0.1164 -0.0723  0.0480
    1W        W43518  21.009  13.600   8.194 -0.0784  0.1804 -0.2373
    1W        W43519   6.517   6.453   2.411 -0.3559  0.3544  0.0817
    1W        W43520  10.549  15.122   1.591  0.1200  0.0370 -0.2753
    1W        W43521  14.606   8.958   3.061  0.1688 -0.2068 -0.2486
    1W        W43522  21.089   1.264   3.467 -0.2505 -0.0204 -0.0350
    1W        W43523   8.139  26.947   9.282 -0.0538  0.0201  0.1322
    1W        W43524  27.729   6.795   2.382  0.0917  0.2940  0.1608
    1W        W43525  27.629  29.177   9.264 -0.1509 -0.4546  0.1268
    1W        W43526   1.571  15.220   9.006  0.3223 -0.1088  0.2063
    1W        W43527  14.536   9.231   7.613 -0.0096 -0.1308 -0.0268
    1W        W43528   3.662   8.491   8.473 -0.0636  0.2647 -0.2302
    1W        W43529  11.907   5.085   2.049 -0.1491  0.2308  0.1383
    1W        W43530  20.829   4.275   8.539 -0.0378  0.0741  0.2030
    1W        W43531  26.981   1.860   9.235  0.0408  0.1526 -0.1189
    1W        W43532   2.175   6.478   8.638  0.1498 -0.0588  0.0170
    1W        W43533  29.125  27.951   2.012  0.1940  0.1915  0.1125
    1W        W43534   4.380  20.060   1.602  0.2660 -0.1115  0.0761
    1W        W43535  17.310  19.262   0.201 -0.1760 -0.0898  0.0143
    1W        W43536  10.306   2.988   2.567 -0.2224 -0.2573 -0.1764
    1W        W43537  24.185  11.471   1.527  0.0119 -0.1128  0.2167
    1W        W43538   1.600  29.071   7.502  0.0046 -0.2046  0.2753
    1W        W43539   6.727  28.676   0.521 -0.0925  0.2300 -0.2415
    1W        W43540   1.346  16.887   0.659 -0.0956  0.1015  0.2428
    1W        W43541  14.105   5.223   1.937 -0.1195  0.1049  0.0615
    1W        W43542  16.159   6.635   8.364 -0.0581  0.0533  0.3180
    1W        W43543  22.827  22.160   0.620 -0.0588  0.1983 -0.1011
    1W        W43544   7.121  11.046   8.908  0.1415 -0.3895 -0.3304
    1W        W43545  13.992   4.894   0.844  0.1320 -0.3219 -0.2715
    1W        W43546   2.486   9.059   8.510  0.0417 -0.0698 -0.0535
    1W        W43547   7.022   6.997   6.911  0.1147 -0.0377 -0.1782
    1W        W43548  29.568   3.331   2.737  0.0024  0.2230  0.1776
    1W        W43549  23.927   7.655   7.304  0.0624 -0.1190 -0.0278
    1W        W43550  21.037  22.730   6.166  0.1667  0.3188  0.1087
    1W        W43551  18.109   3.915   3.759  0.1569 -0.2343 -0.0609
    1W        W43552  26.461  17.967   2.519  0.1271 -0.0275 -0.0992
    1W        W43553   2.629  24.560   1.415  0.2335  0.1035 -0.1138
    1W        W43554  28.343   0.026   0.048  0.1907  0.1090  0.1279
    1W        W43555  15.566  14.310   8.864  0.0700 -0.2330 -0.2168
    1W        W43556   1.380   5.139   7.211 -0.1605 -0.0199 -0.2726
    1W        W43557   8.665  23.573   6.901 -0.0705 -0.1040 -0.0668
    1W        W43558   7.811   0.273   1.974  0.4990 -0.3322  0.0586
    1W        W43559  23.358  29.512   8.035 -0.2144  0.1188 -0.1207
    1W        W43560  21.527  29.403   8.880 -0.2245 -0.1418  0.1206
    1W        W43561  19.845  18.658   9.404 -0.1652 -0.1464  0.0981
    1W        W43562  28.382   0.112   6.915  0.0353  0.2684 -0.1692
    1W        W43563  27.359  22.323   8.911 -0.1192 -0.1651  0.0722
    1W        W43564  26.801   8.680   0.011  0.2358  0.2264 -0.1242
    1W        W43565  25.135  29.498   6.488 -0.1165  0.0627  0.0441
    1W        W43566  13.275   1.010   0.663  0.1075  0.0321 -0.0641
    1W        W43567  22.248   3.922   1.647 -0.0402 -0.0623 -0.1414
    1W        W43568   9.296  25.543   8.198 -0.0231 -0.1101 -0.1456
    1W        W43569  17.123  18.740   9.446  0.2292 -0.1271 -0.0442
    1W        W43570  29.119  19.795   6.719  0.1686  0.0644 -0.0411
    1W        W43571   0.315  23.466   1.831  0.2931  0.1442 -0.1973
    1W        W43572   1.123  14.972   0.450 -0.0750  0.0600  0.0720
    1W        W43573   6.785  26.989   6.405  0.0023 -0.3481 -0.0035
    1W        W43574  17.287   7.857   8.212 -0.0839 -0.1811 -0.1513
    1W        W43575   8.757   9.675   7.485 -0.0834  0.0745  0.0906
    1W        W43576  16.784  22.691   1.437 -0.0978 -0.0721 -0.1328
    1W        W43577   3.106  12.693   5.801  0.0659 -0.2804  0.2585
    1W        W43578  13.156  16.453   1.842 -0.0100  0.2315 -0.3905
    1W        W43579  13.539  17.717   0.597 -0.2361  0.2922  0.0875
    1W        W43580  21.610  21.697   0.461 -0.1607  0.0677 -0.0909
    1W        W43581  16.838  16.395   7.940 -0.1282 -0.1716 -0.0567
    1W        W43582  14.936  24.683   2.414 -0.0929  0.0557  0.0380
    1W        W43583   5.514   6.355   9.028 -0.0328  0.0458  0.1964
    1W        W43584  16.359  24.349   7.224 -0.0051 -0.2184  0.0199
    1W        W43585  26.527  25.657   8.986  0.0442  0.3367  0.0493
    1W        W43586  20.178   5.330   0.758  0.0596  0.3172 -0.0114
    1W        W43587   7.398  29.128   0.854  0.2139  0.1310  0.0643
    1W        W43588  11.245  18.826   9.501 -0.2917 -0.2077  0.0433
    1W        W43589  12.869  13.146   7.998 -0.1586 -0.0417 -0.0708
    1W        W43590  26.308  11.006   7.352 -0.0972  0.1938  0.0617
    1W        W43591  20.345  11.769   0.495  0.0939  0.0537  0.0708
    1W        W43592  10.451  12.290   0.764 -0.0629 -0.0703 -0.1557
    1W        W43593   3.781  17.382   0.223 -0.0494  0.0282 -0.1366
    1W        W43594  11.996  28.621   2.826 -0.1786 -0.3344  0.0090
    1W        W43595  26.595  28.383   2.125 -0.2654 -0.2273  0.0644
    1W        W43596   7.766  21.664   6.739  0.0716 -0.2992 -0.2219
    1W        W43597   1.034   3.945   7.284  0.0010  0.0296 -0.1458
    1W        W43598  11.586   2.478   8.771  0.0270 -0.2362 -0.2166
    1W        W43599   3.144   1.478   8.100 -0.3025  0.0466 -0.1077
    1W        W43600  24.815  13.497   8.222  0.1089  0.1753 -0.0139
    1W        W43601  18.867   2.284   9.277 -0.4945 -0.1699 -0.1315
    1W        W43602  28.491   9.977   8.681  0.0590  0.2001  0.0802
    1W        W43603  27.295  23.073   1.335  0.3404  0.1326  0.0851
    1W        W43604  13.205  12.163   2.118 -0.2043 -0.0265  0.1345
    1W        W43605  21.213  27.327   0.158 -0.0026  0.0787  0.1874
    1W        W43606  23.718   0.027   9.012  0.0567  0.4646 -0.4430
    1W        W43607   7.424  22.515   7.096  0.1584 -0.1062 -0.2557
    1W        W43608   6.747   6.826   7.678  0.2416 -0.0552 -0.1151
    1W        W43609  16.537  24.580   6.349 -0.2206  0.0303 -0.2103
    1W        W43610  27.686  20.678   8.676 -0.0786  0.1109  0.1592
    1W        W43611  28.541  17.951   1.868  0.1407 -0.0909 -0.0601
    1W        W43612  24.361  28.264   3.678  0.1673  0.0743 -0.3000
    1W        W43613  29.168   7.868   8.331 -0.0101 -0.0969  0.6476
    1W        W43614  14.624   4.201   0.338 -0.0925  0.0478  0.0950
    1W        W43615  11.361  14.534   8.966 -0.2706  0.0183 -0.0546
    1W        W43616   8.074  22.159   2.406  0.2481 -0.0682  0.3332
    1W        W43617  27.759  27.808   9.152 -0.3325 -0.1489  0.0312
    1W        W43618  18.298  28.680   9.384  0.3052  0.0841 -0.0536
    1W        W43619  18.418  13.150   7.710  0.0649  0.0753  0.4307
    1W        W43620   4.992  14.615   0.569 -0.2940 -0.0791  0.1415
    1W        W43621  17.346   6.483   8.388 -0.1240 -0.0778  0.0796
    1W        W43622  24.902   7.614   7.793  0.1479 -0.2160  0.2530
    1W        W43623   4.382  28.525   0.738  0.2392 -0.0115  0.0810
    1W        W43624  17.496  27.315   0.025 -0.1241 -0.0627  0.0676
    1W        W43625  21.636  29.749   8.426 -0.0779 -0.0657 -0.5561
    1W        W43626  22.425  21.993   7.966  0.6220 -0.0416 -0.1134
    1W        W43627   9.749   7.762   7.603 -0.2290  0.2808 -0.1620
    1W        W43628  23.763   5.055   3.849 -0.0275  0.1332  0.0745
    1W        W43629   4.304  25.611   1.683  0.0699 -0.1514  0.0475
    1W        W43630  26.331  11.831   1.594  0.0236 -0.0103 -0.2080
    1W        W43631  27.089  25.134   0.763  0.2556  0.0630  0.0413
    1W        W43632  24.092   8.496   9.191 -0.4569 -0.1627  0.0282
    1W        W43633  12.684  16.403   2.657  0.1958 -0.0548  0.1489
    1W        W43634  23.453   3.198   8.352 -0.4400 -0.2487  0.0391
    1W        W43635  28.594  17.394   0.955 -0.2122  0.2374  0.2665
    1W        W43636  16.300   2.936   0.515 -0.0972  0.0554  0.3899
    1W        W43637  21.633  27.503   9.418  0.0872  0.0777  0.0894
    1W        W43638   1.484   4.590   1.613  0.1923  0.1564 -0.2148
    1W        W43639   2.408  20.520   1.237 -0.4988  0.2790 -0.0411
    1W        W43640  16.549  29.747   8.459 -0.1887 -0.0505  0.3325
    1W        W43641   9.039   6.876   1.641 -0.0246 -0.0430  0.0850
    1W        W43642  17.221  17.209   7.926  0.0633 -0.0580 -0.2404
    1W        W43643   3.365   3.997   6.952 -0.1162  0.2475  0.2572
    1W        W43644   3.789   4.322   8.317 -0.1179  0.1781  0.2000
    1W        W43645   4.090  13.219   8.002  0.2104  0.0309  0.1355
    1W        W43646   7.238   2.971   3.056  0.0541  0.0213 -0.0790
    1W        W43647  27.722  18.581   0.206 -0.0868  0.0281  0.1018
    1W        W43648  25.943  12.982   7.816  0.3382  0.0316  0.2070
    1W        W43649  15.871   6.806   0.319  0.0499 -0.2581  0.0046
    1W        W43650   6.305  29.005   9.124 -0.0225 -0.0692  0.0141
    1W        W43651  27.049  25.292   1.328 -0.4026 -0.1382  0.0471
    1W        W43652  28.542  24.479   0.439  0.1121 -0.2195 -0.1917
    1W        W43653   0.275  18.624   6.935  0.0360 -0.1693 -0.2823
    1W        W43654  16.813   1.232   0.476 -0.1654  0.2600 -0.0700
    1W        W43655  17.536  29.502   3.181  0.0674  0.3460 -0.0455
    1W        W43656  18.956  21.415   6.316  0.0171 -0.1514 -0.0809
    1W        W43657  26.736  27.462   0.691 -0.0403  0.2280 -0.0536
    1W        W43658   5.464  29.470   0.874 -0.1617 -0.0021  0.0170
    1W        W43659  13.455  23.781   4.908  0.0806 -0.6336 -0.1629
    1W        W43660   7.449  15.881   5.642 -0.0205 -0.3659 -0.1735
    1W        W43661   6.885  21.451   6.763 -0.1059  0.2524  0.0170
    1W        W43662   5.243  14.254   6.128  0.2576  0.0041 -0.1828
    1W        W43663   8.113  29.620   8.140  0.6345 -0.2025 -0.1819
    1W        W43664  27.227   9.708   1.035 -0.2290  0.1084 -0.4487
    1W        W43665  19.414  14.092   8.956  0.1045 -0.1714  0.0205
    1W        W43666  17.032   0.665   7.427 -0.0350  0.1514 -0.1217
    1W        W43667  26.326  17.435   9.174  0.2318  0.0051  0.0097
    1W        W43668  24.197  22.446   0.215  0.0011 -0.3678  0.1079
    1W        W43669  11.619  11.416   7.759 -0.0623 -0.3408  0.0119
    1W        W43670  10.079  15.218   0.056 -0.1810  0.1397  0.0275
    1W        W43671  25.861   0.485   2.618  0.4288  0.0406 -0.2304
    1W        W43672  14.894   5.644   2.851  0.1955  0.1222  0.2424
    1W        W43673   6.001  17.612   1.558 -0.1074 -0.0726 -0.2645
    1W        W43674  10.148  28.593   0.793 -0.0096 -0.0870 -0.0785
    1W        W43675  12.838   6.129   8.908  0.0452  0.1079  0.1681
    1W        W43676  25.895  27.305   8.291  0.3391 -0.0974  0.0210
    1W        W43677  24.989  11.953   7.313 -0.0500  0.0150  0.1429
    1W        W43678   9.136   1.603   7.425 -0.1681  0.1296 -0.1782
    1W        W43679  26.188   4.816   8.234 -0.2552  0.0357 -0.1090
    1W        W43680  11.706  26.804   7.562  0.0222 -0.1965 -0.0971
    1W        W43681  16.959  27.645   0.142  0.2060  0.1387  0.1665
    1W        W43682   0.091  27.044   0.748  0.1048 -0.0123 -0.1996
    1W        W43683   3.333   1.967   2.659  0.3566 -0.0465  0.0637
    1W        W43684   8.357   4.006   2.672  0.0766 -0.1064  0.2342
    1W        W43685  19.098  29.564   0.945  0.0138  0.1107  0.2210
    1W        W43686  28.962  15.050   1.640 -0.2273 -0.1833 -0.1689
    1W        W43687  21.254   3.410   8.677 -0.1223 -0.1817  0.0027
    1W        W43688  11.229   5.593   7.851  0.1192  0.1052  0.2336
    1W        W43689  26.257  25.133   7.825  0.1412 -0.1514 -0.2676
    1W        W43690   5.721  18.671   9.200  0.0494  0.0255 -0.1825
    1W        W43691  29.008  27.306   8.765  0.1234 -0.0629  0.0897
    1W        W43692   4.732   6.726   8.233 -0.2397  0.0914  0.0777
    1W        W43693  15.344  23.810   6.406 -0.0872 -0.1745  0.1215
    1W        W43694  17.586  27.292   7.671  0.1603 -0.0253 -0.1657
    1W        W43695   5.177   6.910   8.229 -0.1718  0.2981  0.0433
    1W        W43696  16.714  21.896   9.412  0.1311 -0.2021  0.2373
    1W        W43697  20.378   8.480   0.669  0.1387 -0.1754 -0.1250
    1W        W43698  25.228   3.939   1.895  0.0083 -0.3366  0.0611
    1W        W43699   0.344  13.258   1.794  0.0135  0.2584 -0.1342
    1W        W43700   8.641  13.629   6.696  0.3003  0.1503  0.2240
    1W        W43701   4.660   5.995   8.612  0.2924 -0.0484  0.2784
    1W        W43702  14.258  13.299   9.356 -0.3676 -0.0002  0.0605
    1W        W43703  23.460   8.518   2.245  0.4490  0.1211 -0.1999
    1W        W43704   2.003  27.499   0.124 -0.1518  0.1610  0.1959
    1W        W43705  22.993  15.392   6.971  0.2519  0.1124 -0.2557
    1W        W43706   0.388  11.050   1.818  0.1198 -0.0348 -0.3051
    1W        W43707  10.007  15.039   7.914 -0.1287 -0.2302  0.1089
    1W        W43708  26.811  22.371   1.280 -0.1539 -0.2738  0.1062
    1W        W43709  11.575  24.423   0.363  0.2044 -0.3052 -0.0065
    1W        W43710   9.360   6.589   7.026  0.0161  0.1341 -0.3059
    1W        W43711   3.790  14.090   7.038  0.3512  0.1740 -0.0078
    1W        W43712   1.234  25.702   1.135 -0.1810 -0.1762  0.1355
    1W        W43713   1.020  12.451   0.121  0.0112 -0.1461 -0.0671
    1W        W43714   3.758   5.702   8.027 -0.2035 -0.0084  0.0105
    1W        W43715  18.405   6.512   0.500  0.2292  0.1014  0.1142
    1W        W43716   7.803  27.256   0.170 -0.0487  0.0820 -0.0711
    1W        W43717  28.151   7.942   8.577 -0.4398  0.1103  0.5816
    1W        W43718   4.957  15.971   7.919 -0.0827  0.0299 -0.0965
    1W        W43719  12.630  23.451   6.614 -0.3059  0.1311 -0.0130
    1W        W43720  17.285  13.072   1.166  0.1441 -0.0142  0.0930
    1W        W43721  21.745  10.984   1.346  0.0754 -0.0886  0.1550
    1W        W43722  14.155  23.723   5.567  0.2121  0.2145 -0.0946
    1W        W43723  12.235  12.971   8.699  0.0764 -0.0949  0.3404
    1W        W43724  26.207  11.782   0.164 -0.1000  0.1317 -0.0975
    1W        W43725  21.323  28.415   1.870  0.1543 -0.2279 -0.0198
    1W        W43726   8.713   3.100   7.528  0.0092 -0.0167 -0.0294
    1W        W43727  24.658   4.802   1.581 -0.0721 -0.0990  0.0662
    1W        W43728  28.931   0.762   0.127  0.1708  0.1341 -0.0015
    1W        W43729   3.854  10.147   2.584  0.0190 -0.1337 -0.2050
    1W        W43730   2.367  26.728   2.019  0.0532 -0.0775  0.1169
    1W        W43731  15.725  21.618   6.499  0.0844 -0.3779 -0.1046
    1W        W43732  10.889   8.190   1.384  0.1493  0.1234 -0.0847
    1W        W43733  19.367   6.913   1.018 -0.1970 -0.0765 -0.3449
    1W        W43734  11.169   8.768   2.504  0.0234 -0.0631  0.2490
    1W        W43735  23.475  22.472   6.638  0.2431 -0.0888  0.2317
    1W        W43736   7.555  21.390   8.245 -0.2543 -0.1624  0.0825
    1W        W43737   7.480  10.227   7.911 -0.1638 -0.1413  0.3448
    1W        W43738   8.576   9.744   1.811  0.1947 -0.1632 -0.1683
    1W        W43739   3.125  29.855   1.836 -0.4612 -0.0358  0.1428
    1W        W43740   6.986  23.088   1.677  0.2419  0.2245  0.0530
    1W        W43741  21.716  29.665   7.166  0.0776  0.0616  0.0327
    1W        W43742  26.769   7.755   2.059  0.1387 -0.1299 -0.2562
    1W        W43743   5.409  11.671   8.590  0.0408  0.0489  0.0193
    1W        W43744   8.062   6.867   1.756  0.0427  0.1776 -0.1946
    1W        W43745   3.045   0.678   6.863 -0.1134 -0.4876  0.0483
    1W        W43746  10.621   7.571   2.263  0.3368 -0.0606 -0.0984
    1W        W43747  20.383   8.879   8.740  0.0929 -0.2266  0.1168
    1W        W43748  25.836  12.254   9.017 -0.2317  0.1420 -0.2146
    1W        W43749  18.524  15.824   1.288 -0.0625  0.1803 -0.2044
    1W        W43750  28.796  16.848   0.359  0.1992 -0.3033 -0.0954
    1W        W43751  20.817   7.175   2.530  0.2106 -0.2414 -0.0771
    1W        W43752  27.556   2.592   1.546 -0.0283  0.0311  0.1009
    1W        W43753  14.926  19.398   9.093 -0.1479 -0.0266  0.0896
    1W        W43754  12.057  28.525   6.503 -0.0925 -0.2820  0.0807
    1W        W43755  10.139  25.692   6.200 -0.0116  0.1156 -0.0584
    1W        W43756  17.752   3.480   2.539 -0.0226 -0.1400  0.0001
    1W        W43757  22.429  26.746   1.271  0.0705  0.0180  0.0813
    1W        W43758  17.720  13.975   2.105 -0.1621  0.2257 -0.0132
    1W        W43759   5.512  11.266   0.283 -0.2316  0.1707  0.0663
    1W        W43760  29.165  24.118   1.997  0.0361  0.0743 -0.0874
    1W        W43761   9.547   2.108   0.984 -0.4366  0.3449 -0.2323
    1W        W43762   5.046  14.052   0.610 -0.1989 -0.2980  0.0861
    1W        W43763   3.990  17.803   0.097  0.1332  0.1847 -0.2592
    1W        W43764   9.442   4.448   2.435 -0.1984  0.2224  0.0792
    1W        W43765   9.775  19.970   7.130 -0.0058 -0.0478 -0.1143
    1W        W43766   3.816   4.732   1.681 -0.0343 -0.2113 -0.0953
    1W        W43767  21.558   9.373   1.417  0.0438 -0.0430 -0.1222
    1W        W43768  14.131  17.747   6.546 -0.0045 -0.2132 -0.3192
    1W        W43769  26.621  29.490   9.342 -0.1321  0.0911 -0.1591
    1W        W43770  14.111  15.602   1.086  0.0884 -0.1824 -0.2034
    1W        W43771   6.643  15.572   8.809  0.3136 -0.1870 -0.2104
    1W        W43772   4.199  26.361   2.352  0.2430  0.0483  0.2499
    1W        W43773   5.037  10.693   8.408  0.0428  0.1926  0.0987
    1W        W43774   6.317  24.795   2.311 -0.3120 -0.2729  0.1742
    1W        W43775  10.907  28.149   9.525 -0.3523  0.0385  0.0246
    1W        W43776   0.739   7.545   2.239 -0.0876 -0.1057  0.0762
    1W        W43777   3.018  20.535   8.172 -0.1571 -0.2736  0.0736
    1W        W43778  27.887   3.831   9.293  0.0405 -0.3434 -0.2060
    1W        W43779  25.833  12.251   8.006  0.2401  0.0662 -0.1081
    1W        W43780  25.801  10.440   0.372  0.1543  0.2005  0.0468
    1W        W43781   3.780  14.138   1.933 -0.0142  0.2668  0.0915
    1W        W43782  19.200  24.855   7.846 -0.2629  0.0698  0.0736
    1W        W43783  11.034   3.428   0.728  0.1192  0.0688  0.2034
    1W        W43784  14.141  24.400   6.142  0.1381 -0.1479  0.1599
    1W        W43785  13.063  28.247   1.551  0.0201 -0.1698  0.2153
    1W        W43786  26.156  22.378   7.140  0.0263  0.0478 -0.0581
    1W        W43787  15.065  18.491   6.882 -0.3699 -0.0504 -0.0578
    1W        W43788  21.138  20.114   7.323  0.1124 -0.2268  0.0235
    1W        W43789   1.498  16.559   0.977  0.3158  0.0751 -0.1430
    1W        W43790   0.993   8.118   1.055  0.0628 -0.3654 -0.1524
    1W        W43791  17.035   3.066   1.625  0.1198 -0.0055 -0.2088
    1W        W43792   6.749   4.792   1.487  0.0630 -0.1315 -0.1555
    1W        W43793  28.823   0.772   8.162  0.2835 -0.1714  0.1266
    1W        W43794  18.861  13.454   8.645  0.1721  0.2598 -0.1395
    1W        W43795  18.671   9.113   7.704  0.0945  0.1906  0.1105
    1W        W43796  14.235   8.337   8.953 -0.0957 -0.1287 -0.1402
    1W        W43797  29.649   6.506   7.424 -0.2907 -0.0277 -0.1893
    1W        W43798   4.698  10.075   9.190  0.3280  0.2012 -0.1838
    1W        W43799  17.744   1.100   1.850  0.2002  0.1094  0.3209
    1W        W43800  14.242   5.907   1.664 -0.1357  0.1314 -0.1358
    1W        W43801   7.311  22.242   8.869  0.2037  0.2159 -0.0267
    1W        W43802   6.710  24.499   1.319  0.2965 -0.0527 -0.0049
    1W        W43803  26.697  14.079   0.143 -0.1099 -0.0916 -0.0400
    1W        W43804   3.818  17.293   2.289  0.3506  0.2387  0.0458
    1W        W43805   7.043   2.340   2.366 -0.1937 -0.2410 -0.1666
    1W        W43806  14.767   2.479   3.597  0.3807  0.1810 -0.1559
    1W        W43807  24.274  27.945   7.820  0.0022  0.5204 -0.1197
    1W        W43808  28.834   1.727   1.956 -0.0354  0.1977  0.1625
    1W        W43809  16.353   6.876   1.771  0.0376 -0.1708 -0.2120
    1W        W43810   1.326  28.298   8.588 -0.3093 -0.0249  0.1342
    1W        W43811  19.952  24.214   8.932 -0.1179 -0.0363  0.1739
    1W        W43812  29.296  19.928   9.053  0.0018  0.2789 -0.0417
    1W        W43813   7.264  20.393   2.392 -0.0675  0.2553 -0.0490
    1W        W43814  27.787  29.046   2.652 -0.0749 -0.0592 -0.1362
    1W        W43815  16.974  20.740   6.436 -0.0045  0.0031 -0.1908
    1W        W43816   3.737  16.607   1.942 -0.0251 -0.0506  0.0422
    1W        W43817  16.500   2.928   4.084  0.2235  0.0353 -0.0639
    1W        W43818  13.051  21.335   8.553  0.1237 -0.1460 -0.0948
    1W        W43819  23.304  19.050   7.722 -0.0818 -0.0722 -0.0048
    1W        W43820   5.198  29.754   6.675  0.0829 -0.0067 -0.0659
    1W        W43821   9.804  22.163   6.525 -0.1979 -0.0077 -0.0480
    1W        W43822  26.743  10.118   9.458  0.0517  0.0071 -0.2108
    1W        W43823   4.145  22.735   8.861  0.1891  0.1805  0.0289
    1W        W43824   4.793  29.363   7.872  0.1878  0.2284  0.0434
    1W        W43825  15.679  27.244   1.467  0.3182 -0.2855 -0.1273
    1W        W43826   8.236   9.226   9.120  0.1201  0.0223 -0.0281
    1W        W43827   6.015  11.289   6.798  0.2908  0.3074  0.2042
    1W        W43828   0.744   8.122   1.513  0.0739  0.1933  0.0413
    1W        W43829  27.652  24.904   1.578  0.0649 -0.2893  0.0387
    1W        W43830   6.123  24.490   1.931  0.0311 -0.1290  0.0623
    1W        W43831  18.218   9.609   1.499  0.1160 -0.1425 -0.1116
    1W        W43832  13.200  29.769   7.825 -0.1603  0.0954  0.2218
    1W        W43833  14.122  10.210   1.873  0.4497 -0.1274  0.0481
    1W        W43834  21.171   1.678   8.081 -0.0082 -0.0921  0.0017
    1W        W43835   7.851  27.625   0.681 -0.1950  0.2273 -0.1422
    1W        W43836   6.720  15.271   7.857 -0.1925  0.3849  0.0165
    1W        W43837   6.203  22.044   6.269 -0.2457  0.3106 -0.1337
    1W        W43838   8.499  26.876   7.570  0.0119 -0.0005 -0.1488
    1W        W43839  29.765  23.433   7.005 -0.3099 -0.0568  0.0309
    1W        W43840   0.359   0.931   0.888  0.0331  0.0079 -0.2552
    1W        W43841  16.038  11.968   0.256 -0.0257 -0.1414 -0.0527
    1W        W43842   8.040  18.311   9.364  0.3356  0.0774 -0.1404
    1W        W43843  15.939   1.631   3.005  0.2337 -0.0209 -0.0423
    1W        W43844  14.426  24.662   0.843 -0.2017 -0.0869 -0.2673
    1W        W43845   5.308   7.212   0.316  0.1700 -0.3268 -0.1299
    1W        W43846   3.800  11.152   1.253  0.0585  0.0295  0.2670
    1W        W43847  27.869  17.117   8.434 -0.1471 -0.1953 -0.3062
    1W        W43848   3.239  27.464   1.280 -0.0304  0.2116  0.1245
    1W        W43849  28.473  28.841   1.381 -0.2426  0.1180  0.0765
    1W        W43850  24.549   8.026   1.664  0.1236  0.1908 -0.0421
    1W        W43851   6.368  24.989   1.664 -0.1691 -0.0672 -0.2102
    1W        W43852   0.388  13.305   6.766 -0.0106  0.2413  0.2319
    1W        W43853   6.996   4.363   9.203  0.2357  0.4248 -0.1744
    1W        W43854  12.230   7.995   7.639 -0.0898  0.2291 -0.2222
    1W        W43855   6.181   3.878   9.174  0.4672  0.1161 -0.1541
    1W        W43856   1.855   2.744   9.486 -0.1169  0.2504  0.1500
    1W        W43857  23.298  11.874   0.977 -0.0846 -0.4004  0.1560
    1W        W43858   3.035  22.439   7.162  0.1428  0.0404 -0.0107
    1W        W43859  24.208  14.580   7.708  0.3687  0.1140  0.0086
    1W        W43860  19.513  19.269   7.772  0.0714 -0.0194  0.2217
    1W        W43861  27.315  15.754   2.673 -0.1337 -0.3213  0.0238
    1W        W43862  12.427   7.408   1.960 -0.2064  0.0425 -0.1474
    1W        W43863  10.120  28.042   0.998 -0.1733 -0.0943  0.3477
    1W        W43864  17.742  28.098   1.603 -0.0757 -0.2599  0.0069
    1W        W43865  26.667  21.627   0.228  0.0663  0.0653 -0.2012
    1W        W43866  18.195  16.550   0.272  0.1804 -0.0883 -0.3084
    1W        W43867   5.017   9.677   8.241  0.0439  0.4344 -0.1129
    1W        W43868  12.665  16.795   2.962 -0.0795  0.0436  0.1876
    1W        W43869  28.684  12.228   1.599 -0.1024 -0.1769 -0.0818
    1W        W43870  22.011  23.608   7.911 -0.2123  0.0396 -0.1655
    1W        W43871  20.052  21.586   0.756  0.0303  0.1904  0.2367
    1W        W43872  27.082  15.298   1.691  0.0008  0.0245  0.0356
    1W        W43873  12.289  19.909   7.092  0.1713  0.0607 -0.2160
    1W        W43874  29.292   9.432   6.700 -0.4152 -0.0032 -0.1603
    1W        W43875   5.721  16.369   2.433 -0.0672  0.1319  0.1785
    1W        W43876  16.120  27.407   9.213 -0.0290 -0.1992  0.0963
    1W        W43877  26.799   6.221   0.235  0.3658 -0.0277  0.1648
    1W        W43878  20.531  29.275   9.502 -0.2209 -0.0675 -0.1668
    1W        W43879  18.077   3.924   2.614  0.0555 -0.2033  0.0309
    1W        W43880  28.954   4.001   8.368  0.2025  0.0359 -0.2348
    1W        W43881   4.536  14.271   7.457  0.1092  0.1044 -0.1284
    1W        W43882  24.290  24.765   7.773  0.0448 -0.0578  0.0019
    1W        W43883  28.888  19.346   0.422 -0.1586 -0.0792 -0.1170
    1W        W43884   7.059   0.609   8.580 -0.0807 -0.1179  0.2925
    1W        W43885   0.294  11.857   8.020  0.0473  0.3644  0.0410
    1W        W43886  20.093   6.929   2.458  0.0073 -0.1038 -0.0679
    1W        W43887  23.093   5.349   0.435  0.0616  0.0685  0.0092
    1W        W43888  12.177   1.206   8.532  0.2043  0.2187 -0.1595
    1W        W43889  10.202  25.231   7.160 -0.2356 -0.0581 -0.2346
    1W        W43890  26.551  23.590   6.235 -0.0868 -0.0224  0.1269
    1W        W43891   0.547   0.414   2.504 -0.0646  0.2084  0.0484
    1W        W43892  13.135  28.840   9.273 -0.1389 -0.0961  0.1488
    1W        W43893  26.673  16.778   2.417  0.0666  0.0720 -0.1101
    1W        W43894  27.949  10.921   7.843 -0.0792 -0.0811 -0.0289
    1W        W43895  17.477  28.729   9.467  0.2289 -0.1454 -0.1188
    1W        W43896   4.255  24.863   9.330 -0.0230  0.2762  0.1029
    1W        W43897  13.299   7.923   3.635  0.1300 -0.2495  0.1058
    1W        W43898   0.331  10.075   1.621 -0.1282 -0.1437 -0.0273
    1W        W43899  27.235   0.384   2.810 -0.0422  0.2690  0.4290
    1W        W43900  20.139  27.513   8.976 -0.1524  0.4171  0.1348
    1W        W43901   1.416   0.149   8.937 -0.0272 -0.0793  0.0572
    1W        W43902  11.892  17.825   6.285  0.2041 -0.1720  0.3318
    1W        W43903   1.634  11.935   3.065 -0.1179  0.3124  0.1260
    1W        W43904  14.602   5.869   0.392  0.3179  0.0988  0.0014
    1W        W43905   0.360  21.963   7.321  0.0385  0.0197 -0.0462
    1W        W43906  26.752  26.962   0.951  0.1912  0.1918 -0.1549
    1W        W43907  23.699  23.035   1.104  0.2180  0.0334  0.2689
    1W        W43908  26.202  13.167   6.821  0.0019  0.4019  0.2407
    1W        W43909  16.257  13.661   7.062  0.2374  0.0131  0.1767
    1W        W43910  24.638  28.363   2.889 -0.4288  0.1213 -0.3202
    1W        W43911   5.409   0.337   1.081  0.5789 -0.1482 -0.0423
    1W        W43912   7.042  12.694   0.860 -0.2151 -0.3456 -0.0167
    1W        W43913  26.886  21.786   7.280  0.0738 -0.0706 -0.1282
    1W        W43914   2.375  12.113   7.788 -0.2734  0.1224  0.2205
    1W        W43915  13.377  21.952   1.574 -0.2287 -0.0824 -0.0413
    1W        W43916  19.248  23.162   1.657 -0.0290  0.1573 -0.1016
    1W        W43917   5.267  21.477   9.455  0.0118  0.0796 -0.0613
    1W        W43918   6.146  28.723   6.432  0.0407  0.2176  0.2878
    1W        W43919  20.585  18.463   7.991  0.0315 -0.0719  0.3919
    1W        W43920  11.520   0.266   0.672  0.0486 -0.2159 -0.0118
    1W        W43921  24.786  12.899   1.317 -0.3062  0.1483 -0.2248
    1W        W43922   4.211  15.658   9.356 -0.1457 -0.0395  0.0387
    1W        W43923  22.661   3.205   8.202 -0.0033  0.2447  0.0657
    1W        W43924   1.074   2.896   2.229  0.2493  0.2157  0.4800
    1W        W43925  14.526  13.667   1.492  0.3645  0.0191 -0.2860
    1W        W43926  23.459   8.008   2.079 -0.1686 -0.2472  0.1498
    1W        W43927   0.599   9.268   1.086  0.1169 -0.0617  0.1903
    1W        W43928  25.174  14.376   0.446 -0.1922 -0.1845 -0.0701
    1W        W43929  29.775  25.658   8.108 -0.0429 -0.0847  0.2860
    1W        W43930  14.697   3.861   3.213 -0.1943 -0.1546  0.0305
    1W        W43931   7.316  12.994   9.027  0.2455 -0.3105 -0.0524
    1W        W43932  14.439   1.354   3.017  0.4243  0.2079  0.1311
    1W        W43933   7.836   5.411   6.942  0.0451  0.0340 -0.1106
    1W        W43934  22.237   4.744   9.423 -0.2523 -0.0979  0.2851
    1W        W43935  27.861   9.091   2.095  0.1192 -0.2325  0.1103
    1W        W43936  12.156  27.523   6.857 -0.0858  0.1197 -0.1438
    1W        W43937  20.073  22.625   2.037  0.0495 -0.2072  0.0978
    1W        W43938   8.533  10.100   1.096  0.1330  0.0326  0.3269
    1W        W43939  13.036   3.295   3.132 -0.2092  0.0901  0.4361
    1W        W43940  20.731   0.590   2.037 -0.1030 -0.0837 -0.0235
    1W        W43941   1.672   2.162   1.322  0.2139  0.1405 -0.2912
    1W        W43942   5.014  26.605   6.173  0.0477 -0.0422 -0.0427
    1W        W43943  18.971  16.997   9.491 -0.0848 -0.3441  0.0349
    1W        W43944  25.639  21.051   8.161 -0.2362  0.0164 -0.1773
    1W        W43945  28.282   2.934   2.391 -0.1950 -0.4689 -0.2647
    1W        W43946   5.323  24.361   9.449 -0.0140  0.0327 -0.0896
    1W        W43947   8.104  21.572   1.308 -0.0001 -0.1986 -0.1177
    1W        W43948   5.638   9.629   7.364 -0.2532  0.0285 -0.0784
    1W        W43949  26.797  26.646   0.061 -0.1221  0.2415 -0.0146
    1W        W43950  28.590  28.486   5.962 -0.0190  0.0784  0.1783
    1W        W43951  16.556  18.878   7.957  0.0059  0.2989  0.1036
    1W        W43952  15.284   7.733   8.831 -0.0975 -0.0320  0.2454
    1W        W43953   2.613   1.681   3.436  0.1294 -0.0729 -0.0779
    1W        W43954   7.985   4.569   2.934 -0.2116 -0.3322 -0.1643
    1W        W43955   3.297  15.346   8.446 -0.2695 -0.0580 -0.1907
    1W        W43956  18.173   2.119   0.344  0.0173 -0.0515  0.2962
    1W        W43957   7.298   0.846   1.884 -0.1032  0.0481  0.2759
    1W        W43958  25.832  11.201   1.031  0.1692  0.0260  0.2894
    1W        W43959  11.408  25.909   1.903 -0.0991 -0.2089  0.0403
    1W        W43960   5.596  23.426   8.503  0.3935 -0.2384  0.0837
    1W        W43961  11.882   2.617   2.619 -0.0182  0.2691 -0.2529
    1W        W43962   8.528  15.641   6.605  0.1420  0.2117 -0.0095
    1W        W43963   6.489  10.569   2.635  0.0137  0.0272 -0.0338
    1W        W43964  17.681  29.616   2.612  0.0254 -0.0541 -0.1094
    1W        W43965  15.665  20.083   6.339 -0.0551 -0.0237  0.1125
    1W        W43966   8.496  12.641   1.095 -0.0663 -0.4525 -0.0578
    1W        W43967  29.709   1.889   8.869 -0.1538  0.1643 -0.3115
    1W        W43968  12.405   2.681   2.801  0.0472 -0.1867  0.2503
    1W        W43969   3.434  25.160   6.604 -0.2253  0.1702 -0.0108
    1W        W43970   8.933  20.703   6.271 -0.1207 -0.4006 -0.0093
    1W        W43971  29.597  24.730   8.399  0.0839 -0.2473  0.2989
    1W        W43972  27.896  18.610   0.700 -0.5970 -0.1991  0.0372
    1W        W43973  17.054   6.268   1.737  0.0419  0.0357 -0.1291
    1W        W43974  21.672  11.092   1.931  0.1002 -0.2157  0.1983
    1W        W43975  11.234  23.975   6.137 -0.0011  0.0349 -0.1098
    1W        W43976  21.029   2.605   2.679 -0.1097 -0.1810 -0.1053
    1W        W43977   0.853  29.323   6.576 -0.0190 -0.0413 -0.2606
    1W        W43978   7.022   7.348   3.052 -0.1136  0.1841  0.3562
    1W        W43979  26.172   1.677   7.819  0.1040 -0.1688 -0.1546
    1W        W43980  14.700  19.684   8.750 -0.0006 -0.2591 -0.1628
    1W        W43981  11.306   8.974   8.116 -0.2883 -0.1748  0.2385
    1W        W43982  12.327  20.174   0.654  0.0852 -0.1014 -0.0403
    1W        W43983   4.360   4.995   8.334  0.1201  0.0688 -0.2541
    1W        W43984   3.675   2.710   2.290 -0.1243  0.3771 -0.1035
    1W        W43985  15.926   3.966   2.428  0.0676 -0.1165  0.0022
    1W        W43986  14.473  25.514   0.314 -0.1690  0.0912 -0.3355
    1W        W43987   9.967  18.930   8.642 -0.0419 -0.1158  0.3854
    1W        W43988  21.239  28.568   8.504 -0.1831 -0.2754  0.0763
    1W        W43989   9.378  16.418   7.432 -0.2442 -0.0039  0.0238
    1W        W43990   0.245   6.263   0.928 -0.1104  0.1790  0.1106
    1W        W43991   5.630  23.610   6.346 -0.0316 -0.2496  0.2697
    1W        W43992  25.699  20.802   6.602  0.1222 -0.3446  0.0222
    1W        W43993  16.239  11.220   8.168 -0.0332  0.0499  0.1882
    1W        W43994  21.881  21.843   7.337 -0.1769 -0.1044  0.3375
    1W        W43995  25.719  12.452   6.996  0.1946 -0.0050 -0.3205
    1W        W43996  14.045   3.388   8.769  0.1950 -0.3333 -0.1077
    1W        W43997  27.110  10.374   0.173  0.0028  0.1972 -0.2791
    1W        W43998   4.330   7.009   8.552  0.0228 -0.2434 -0.3887
    1W        W43999  15.587  17.156   0.647  0.0637  0.1401 -0.2096
    1W        W44000   0.343  19.246   1.538 -0.0035  0.1392  0.2062
    1W        W44001  25.126  18.172   1.977  0.0083  0.0174 -0.0755
    1W        W44002  29.523   5.827   0.425 -0.2015  0.6894  0.0222
    1W        W44003  15.700  15.777   1.467 -0.3113  0.0202  0.1664
    1W        W44004   3.243  14.762   7.063  0.0635 -0.0991  0.1874
    1W        W44005   0.705  12.637   0.599  0.1301  0.0181  0.0631
    1W        W44006  24.544  16.112   1.243 -0.1161 -0.1573  0.3650
    1W        W44007   9.222  16.083   6.658 -0.1690  0.2695 -0.0765
    1W        W44008  29.229  29.015   6.176  0.0355 -0.1087  0.1877
    1W        W44009   1.123  20.828   7.921 -0.2706  0.0712  0.1526
    1W        W44010  17.783  15.564   9.197 -0.1324 -0.1043  0.0776
    1W        W44011  25.563  19.105   9.176 -0.0294  0.0582 -0.0066
    1W        W44012  19.118  26.336   1.182  0.0840  0.1000 -0.1778
    1W        W44013   8.932  12.748   0.803 -0.0954 -0.0139  0.2894
    1W        W44014   0.656  27.339   1.767 -0.1213  0.2525 -0.0366
    1W        W44015  15.128  26.358   7.404  0.2894  0.2360  0.1834
    1W        W44016  18.780   8.887   0.072  0.2501 -0.1942 -0.0084
    1W        W44017  24.859  11.502   9.349  0.2024  0.1315 -0.2797
    1W        W44018  27.981   2.345   7.154  0.2771  0.2765  0.1112
    1W        W44019  21.632   7.697   0.342  0.2242 -0.1647 -0.0621
    1W        W44020   2.173  15.458   7.943 -0.0686 -0.1521  0.0448
    1W        W44021   1.051   3.181   9.032 -0.6340 -0.0016  0.0666
    1W        W44022  15.231   5.638   1.171 -0.0377 -0.2651 -0.0365
    1W        W44023  24.337   5.987   8.730  0.0934  0.0081  0.1981
    1W        W44024  10.286   8.342   6.399  0.0030  0.1088 -0.2509
    1W        W44025   0.542  29.690   6.363  0.3728 -0.0041 -0.3232
    1W        W44026   7.822  24.544   7.915 -0.1045 -0.1097 -0.4977
    1W        W44027   7.947  18.988   5.650  0.0604 -0.0902 -0.1879
    1W        W44028  17.289   8.169   0.664  0.0651 -0.2577  0.1684
    1W        W44029  22.061   0.534   9.043  0.1104  0.1278  0.2971
    1W        W44030  25.986  28.068   0.602 -0.0889 -0.1492  0.4811
    1W        W44031  10.373  25.888   0.666  0.0440 -0.1618 -0.0031
    1W        W44032   4.092  29.643   1.378  0.0685  0.1290 -0.1405
    1W        W44033   7.874  15.492   1.897  0.2905 -0.0842 -0.0011
    1W        W44034  25.803  26.759   0.164 -0.2005  0.0671  0.0574
    1W        W44035  20.576   0.119   2.462 -0.1871 -0.1527  0.0559
    1W        W44036   9.694   9.046   6.689  0.1093  0.0550 -0.2167
    1W        W44037  26.256  24.454   7.522  0.1759  0.2491 -0.1317
    1W        W44038   8.289  17.787   9.503 -0.3163 -0.2457 -0.2954
    1W        W44039  13.791   4.538   0.560  0.0691  0.4301  0.1322
    1W        W44040   3.344   6.080   8.219  0.1125 -0.0430 -0.1046
    1W        W44041  10.411   6.503   7.635  0.0742  0.0378 -0.1512
    1W        W44042  26.506  23.310   8.726 -0.1953 -0.1968 -0.0272
    1W        W44043  13.562  15.930   1.063 -0.3693 -0.0502  0.0356
    1W        W44044   9.312  12.427   9.449  0.1021 -0.2794  0.1170
    1W        W44045  19.956  15.803   8.083  0.0089 -0.2116  0.2676
    1W        W44046   8.818   5.526   6.461  0.3298  0.1769  0.0432
    1W        W44047   3.464   1.251   1.850 -0.0295  0.3696  0.1954
    1W        W44048   8.041   5.454   6.496 -0.0397 -0.3159 -0.1093
    1W        W44049  11.305   6.335   8.892 -0.0868 -0.1417  0.0893
    1W        W44050  11.078   5.832   2.105  0.2934  0.1077  0.0192
    1W        W44051  23.210   7.196   2.798  0.2022  0.0801 -0.0726
    1W        W44052  21.046  26.482   8.380 -0.1850  0.4003 -0.1633
    1W        W44053  15.786   1.787   2.326  0.0418  0.1278  0.5189
    1W        W44054  19.844  28.189   0.157  0.0780 -0.2893  0.0386
    1W        W44055  23.326  17.715   1.311 -0.1307  0.0381 -0.4649
    1W        W44056  25.758  18.069   2.280  0.3186  0.0970  0.0412
    1W        W44057  15.811   3.272   1.220  0.3705  0.1433  0.3115
    1W        W44058  14.064   0.578   7.302  0.1348  0.3908 -0.0581
    1W        W44059   0.681   8.826   2.324  0.2154 -0.2977 -0.2262
    1W        W44060  19.600   2.869   8.669  0.0641 -0.2186 -0.0486
    1W        W44061   1.784  16.096   0.213  0.0346 -0.1704 -0.1384
    1W        W44062   2.008  19.314   6.733  0.0776 -0.1347 -0.0433
    1W        W44063  19.175   1.818   3.233  0.5187 -0.1575 -0.2205
    1W        W44064  19.594  18.123   1.955  0.1753 -0.0648  0.2252
    1W        W44065  14.134   3.123   2.284 -0.0788 -0.0579  0.0940
    1W        W44066  16.756  29.453   0.232  0.2273  0.1755 -0.2643
    1W        W44067   9.125  18.217   8.407  0.0971  0.1849 -0.0318
    1W        W44068   7.112  11.546   2.329  0.5051  0.2188 -0.0487
    1W        W44069  11.333  23.626   0.628  0.4478  0.0476  0.3674
    1W        W44070   3.000  24.149   7.894  0.2160 -0.0437  0.1944
    1W        W44071  14.940  11.709   1.382 -0.2849  0.1057  0.2580
    1W        W44072  11.247  10.794   8.613  0.0526  0.2394  0.2034
    1W        W44073   6.103   5.381   8.724 -0.0862 -0.0626 -0.2370
    1W        W44074  19.652  26.252   1.517 -0.3247 -0.1384 -0.0431
    1W        W44075   3.758   2.880   2.726 -0.5410  0.4079  0.0312
    1W        W44076  11.557   4.696   8.918  0.1919  0.3381  0.1632
    1W        W44077  29.664  25.976   9.323 -0.0256  0.1774 -0.0189
    1W        W44078   6.388  28.229   0.500  0.0512 -0.0360  0.0067
    1W        W44079  23.847   1.780   8.363  0.0699 -0.0673  0.2581
    1W        W44080   7.814   1.153   7.043  0.0674 -0.2035 -0.2129
    1W        W44081   6.812  29.358   8.857 -0.1138 -0.1508 -0.2164
    1W        W44082  26.711  28.540   0.018 -0.0579  0.0707  0.0400
    1W        W44083  14.860   8.038   2.051  0.2063 -0.0900 -0.0483
    1W        W44084  26.194  17.293   7.499  0.0785  0.2245 -0.0764
    1W        W44085  15.319  10.749   2.243 -0.2277 -0.1851 -0.1380
    1W        W44086  10.454  20.823   9.052  0.0256  0.1706  0.0753
    1W        W44087  18.463  22.732   0.822  0.1859 -0.1460  0.0242
    1W        W44088  24.012  27.135   2.135 -0.1075  0.0146  0.2353
    1W        W44089  26.550  18.562   8.817 -0.3295  0.0426 -0.1118
    1W        W44090  17.790  17.918   1.517 -0.2916  0.0512 -0.3723
    1W        W44091  16.784  15.918   9.331 -0.2823 -0.1587  0.2685
    1W        W44092  26.889  24.574   2.108  0.3019 -0.0039  0.1102
    1W        W44093  21.981  11.305   2.252 -0.1130 -0.1395  0.1376
    1W        W44094  27.496   0.492   1.474  0.0675  0.3282 -0.2068
    1W        W44095   1.320  26.671   1.121 -0.2618 -0.0051  0.0046
    1W        W44096  14.313  23.515   1.224  0.1938  0.1746 -0.3819
    1W        W44097  11.079   4.826   3.057 -0.2655 -0.2879  0.1538
    1W        W44098  25.747  18.648   7.815 -0.1339 -0.0664 -0.1371
    1W        W44099  23.794  20.753   9.416  0.3811 -0.3631  0.0124
    1W        W44100  26.489  13.819   0.531  0.3911 -0.1485  0.1419
    1W        W44101   7.985  14.099   8.524  0.0448  0.0729  0.3126
    1W        W44102  27.861  16.799   6.650  0.0561 -0.0005  0.0047
    1W        W44103   6.120   8.266   7.974 -0.3480  0.0329 -0.1379
    1W        W44104  11.273  28.223   7.560 -0.1109  0.0657 -0.1681
    1W        W44105   1.735  28.552   6.851 -0.0211  0.1259 -0.0141
    1W        W44106  18.653  29.373   1.476 -0.0133 -0.3353 -0.3173
    1W        W44107  16.256  25.100   1.176 -0.1500 -0.1272 -0.0728
    1W        W44108  15.034  17.502   7.687  0.1384 -0.0966 -0.2350
    1W        W44109   9.229  20.506   7.829 -0.0524 -0.0919 -0.0806
    1W        W44110   5.131   8.427   2.621 -0.1531 -0.0687 -0.1590
    1W        W44111   8.274   7.673   9.055 -0.1939  0.5312  0.0567
    1W        W44112  14.195  24.704   9.167 -0.1328 -0.0190  0.1625
    1W        W44113  26.958  13.464   7.773  0.0877 -0.3462 -0.2543
    1W        W44114   3.827  27.146   6.523  0.1556 -0.0376  0.0222
    1W        W44115  17.393  14.996   1.345  0.0734  0.0491  0.0188
    1W        W44116  14.346  16.052   5.734  0.4364  0.1909 -0.2962
    1W        W44117  20.465  20.759   0.749 -0.2614  0.0111  0.2297
    1W        W44118  17.395   8.823   9.114 -0.1346 -0.0605  0.0179
    1W        W44119   1.100  16.802   0.277 -0.1267  0.1589 -0.1509
    1W        W44120  13.148  22.368   1.396  0.2749 -0.1358  0.0569
    1W        W44121   9.899   2.628   2.447 -0.2941 -0.0048 -0.3033
    1W        W44122   6.322   2.902   7.397  0.1760  0.0507 -0.0487
    1W        W44123  29.556  27.717   1.766  0.3373  0.4060  0.0692
    1W        W44124  19.449  16.738   0.723  0.0851 -0.1629  0.2423
    1W        W44125   1.943   1.307   1.969 -0.4468 -0.1558 -0.0406
    1W        W44126   0.200  25.023   7.032  0.1842  0.0601  0.1215
    1W        W44127   3.078  21.448   0.681 -0.0022 -0.0507  0.1230
    1W        W44128  14.978   7.892   8.473  0.0493  0.2075  0.0825
    1W        W44129   9.556   1.589   7.746 -0.1257  0.0760 -0.1360
    1W        W44130  28.280   5.341   2.295  0.2037  0.2420 -0.3299
    1W        W44131   5.902  22.659   7.018 -0.2162  0.0338  0.1777
    1W        W44132   3.645  19.721   2.655 -0.2720 -0.0576  0.0634
    1W        W44133   0.061  24.880   0.393  0.0974 -0.0911 -0.1156
    1W        W44134  12.993   8.827   9.091  0.0668 -0.0527 -0.0935
    1W        W44135  25.925  21.196   2.502  0.1631 -0.0086  0.0148
    1W        W44136  12.363  23.888   2.053  0.1837  0.4115 -0.2522
    1W        W44137   9.525  23.635   6.563  0.4185  0.3088  0.2331
    1W        W44138  18.853  27.423   2.013  0.1114 -0.1577  0.1914
    1W        W44139  23.833   9.116   1.089 -0.0971  0.1398  0.0164
    1W        W44140  18.326  17.976   0.631 -0.1190  0.0905  0.0558
    1W        W44141  18.439  13.518   9.074  0.3769  0.3273 -0.2468
    1W        W44142  23.398  26.958   2.683 -0.1748 -0.2686  0.4365
    1W        W44143  10.877  14.214   6.434  0.0424  0.3191  0.0537
    1W        W44144   7.998  25.078   5.608  0.0755 -0.0691  0.3649
    1W        W44145  29.391  21.270   0.242  0.2096 -0.0446 -0.0617
    1W        W44146   1.064   6.584   2.382  0.0486  0.1158 -0.2866
    1W        W44147  22.845  25.824   6.903 -0.0920 -0.0346 -0.0580
    1W        W44148  12.308  22.140   1.347  0.0863  0.2130 -0.2030
    1W        W44149   0.563   5.507   0.592 -0.1128 -0.0428 -0.3479
    1W        W44150  28.583  11.531   1.753  0.0277  0.1396 -0.1182
    1W        W44151  13.250  18.036   9.105 -0.3202  0.0219  0.1338
    1W        W44152  15.705  16.317   0.478  0.0043  0.0466  0.0221
    1W        W44153   7.926  14.857   8.119  0.1153  0.0398 -0.1764
    1W        W44154  20.136  29.726   8.849  0.0483  0.1343 -0.1993
    1W        W44155  18.115  14.185   2.279 -0.1741 -0.2502  0.0929
    1W        W44156  19.293   8.437   8.075 -0.3709  0.1102  0.0203
    1W        W44157  25.743  28.972   7.698 -0.1558  0.2414 -0.2570
    1W        W44158  27.508  22.874   8.722  0.1442  0.0527 -0.0557
    1W        W44159   5.348  23.941   6.064  0.0644  0.3720  0.2712
    1W        W44160   5.088   4.497   2.352  0.2563 -0.0996 -0.0860
    1W        W44161  24.909  23.382   8.996  0.0009 -0.2207 -0.1135
    1W        W44162   3.741  13.111   7.075 -0.0688  0.0553  0.1909
    1W        W44163  25.545  25.072   9.371  0.2377  0.1963 -0.0602
    1W        W44164  17.286   7.200   2.617  0.0666 -0.2630 -0.0253
    1W        W44165  18.257  24.920   1.385  0.0845 -0.1681  0.2447
    1W        W44166  11.789  29.226   2.240 -0.0647  0.1860  0.2361
    1W        W44167  14.466  25.891   0.727 -0.0387 -0.0068  0.0861
    1W        W44168   5.253  10.315   7.788 -0.1156  0.1680 -0.0914
    1W        W44169  15.780   7.430   8.784 -0.2256  0.1932  0.0434
    1W        W44170  13.122  11.346   7.567 -0.1988  0.0868  0.1052
    1W        W44171   0.298   8.828   0.938 -0.3848  0.2361 -0.1430
    1W        W44172   0.681  28.528   6.178  0.1299 -0.1572 -0.0250
    1W        W44173  14.194  20.103   8.512  0.0734 -0.2701 -0.0067
    1W        W44174   5.618  18.248   8.920 -0.0348  0.0735  0.3933
    1W        W44175  29.058   6.218   1.374 -0.1508 -0.0979  0.2775
    1W        W44176  26.536  25.458   7.437 -0.2727  0.4438  0.2505
    1W        W44177  13.857  28.331   7.485  0.3497  0.1287  0.0886
    1W        W44178  15.745  19.350   8.367 -0.1946 -0.2097  0.0886
    1W        W44179  24.156   3.054   8.987 -0.2247 -0.0689 -0.2350
    1W        W44180  26.278  19.929   2.012 -0.1621 -0.0739 -0.0046
    1W        W44181  25.645  15.521   3.055 -0.2747 -0.0650  0.0423
    1W        W44182  15.758  15.229   9.185  0.0583 -0.1023  0.0482
    1W        W44183  17.365  19.882   6.566  0.0250 -0.1028 -0.0178
    1W        W44184  17.209  17.478   1.924 -0.1280 -0.0439 -0.2620
    1W        W44185   0.764  10.844   6.864  0.0537  0.3464  0.1189
    1W        W44186  28.393   8.271   1.817 -0.0297  0.3143 -0.2901
    1W        W44187   8.548  23.401   1.384  0.1784  0.1680  0.0341
    1W        W44188  21.693  27.268   0.343  0.1447  0.0279  0.1487
    1W        W44189   7.127  21.838   6.424 -0.0195  0.3055  0.0384
    1W        W44190   1.052   9.831   8.079  0.3623  0.0127 -0.0755
    1W        W44191   5.615   7.067   1.348  0.1441  0.0470 -0.0664
    1W        W44192  21.453  29.265   3.453  0.0872 -0.1177 -0.1539
    1W        W44193   6.665  22.788   1.419  0.3787 -0.1825 -0.2237
    1W        W44194   6.523   2.406   8.922 -0.3720 -0.0981  0.1681
    1W        W44195  26.404  13.618   6.961 -0.0427 -0.1040 -0.3018
    1W        W44196  27.256  22.968   7.525  0.0513  0.2602  0.1111
    1W        W44197  12.087   1.365   2.384  0.0586 -0.1597 -0.0466
    1W        W44198   3.816  11.977   0.795 -0.1265 -0.4733 -0.1317
    1W        W44199  27.592  20.295   6.803  0.1349  0.0339 -0.2833
    1W        W44200  11.010  15.426   1.681 -0.0365 -0.1741 -0.0696
    1W        W44201  11.637  21.449   8.821  0.0785  0.2438  0.2056
    1W        W44202   7.217  19.174   0.522 -0.1693  0.2977 -0.2441
    1W        W44203  23.716   2.141   2.809 -0.0567  0.0618 -0.0755
    1W        W44204   2.039  15.429   1.355 -0.1764  0.1413  0.0988
    1W        W44205  27.090  28.185   8.742 -0.0845  0.0084  0.0050
    1W        W44206  12.586  21.043   6.822  0.3301 -0.0067 -0.0732
    1W        W44207  24.002  28.142   7.436  0.0292  0.1958 -0.1105
    1W        W44208  23.154  21.308   1.128 -0.1092  0.1706  0.1551
    1W        W44209   9.991  19.395   9.070 -0.3413  0.3112 -0.0370
    1W        W44210  27.675  20.881   8.174  0.0057 -0.0985  0.0840
    1W        W44211  25.898  26.201   7.745  0.2742 -0.0080 -0.1781
    1W        W44212  18.751  28.550   7.796  0.1848  0.0203 -0.1402
    1W        W44213  16.772  25.235   8.662  0.1930 -0.1725  0.1089
    1W        W44214  26.520  18.930   1.099  0.1861 -0.3313  0.2519
    1W        W44215  28.257  11.122   7.328 -0.2890 -0.2808 -0.0247
    1W        W44216  28.374  20.888   1.799  0.0541 -0.0005  0.3885
    1W        W44217  24.841   4.572   8.798  0.0067 -0.0234 -0.2318
    1W        W44218  21.437   7.480   0.784  0.1239  0.1077  0.1735
    1W        W44219   6.690  11.176   9.041 -0.0401  0.1114  0.0257
    1W        W44220  20.320  29.533   2.570  0.1257  0.4007 -0.0399
    1W        W44221   9.846  26.041   8.889 -0.1965  0.3946 -0.0567
    1W        W44222  29.255   5.768   8.789  0.1759  0.0537  0.1756
    1W        W44223   0.742  25.998   0.084 -0.0003  0.0999  0.1447
    1W        W44224  28.911   1.560   8.783 -0.0005 -0.1232  0.4496
    1W        W44225   7.878  10.489   6.838 -0.4324 -0.2224 -0.1532
    1W        W44226  21.934  20.664   8.796 -0.2078 -0.1020  0.1001
    1W        W44227  11.859  24.232   6.704 -0.1816 -0.1612 -0.1911
    1W        W44228   3.300  18.225   7.117  0.0778  0.0126  0.0063
    1W        W44229   4.196  17.467   0.474  0.1215  0.1772  0.2026
    1W        W44230  15.803  25.637   8.198 -0.1726 -0.0449  0.2761
    1W        W44231  13.792   7.203   8.911  0.2698 -0.0674  0.0646
    1W        W44232   4.344  15.273   1.269  0.1075  0.0875 -0.0124
    1W        W44233  27.527  28.600   0.682 -0.4181  0.1170  0.1654
    1W        W44234  20.071  19.145   9.372  0.2494 -0.2208  0.0245
    1W        W44235   8.320   8.645   0.802 -0.2033 -0.1330 -0.3356
    1W        W44236   5.099  16.557   7.354  0.1561 -0.1530 -0.1219
    1W        W44237  18.399   1.452   1.062  0.0355  0.2601 -0.0539
    1W        W44238   0.136  28.602   9.444 -0.0766 -0.1302  0.1706
    1W        W44239  19.249   1.828   1.618  0.0751 -0.0052 -0.1533
    1W        W44240   4.610   7.459   3.530 -0.3280 -0.1541  0.0112
    1W        W44241   0.238   9.962   8.212 -0.1324 -0.3197 -0.1659
    1W        W44242   5.634  22.533   8.023 -0.1716  0.0502  0.1226
    1W        W44243  22.343   8.420   9.255  0.2770 -0.0423  0.0273
    1W        W44244   7.369  18.178   1.037 -0.0283 -0.0565  0.0038
    1W        W44245  15.203  28.191   7.178 -0.2600  0.1378  0.0110
    1W        W44246   9.298  21.886   1.101 -0.4010  0.2139 -0.0499
    1W        W44247  28.142  12.982   7.775  0.1518 -0.1894 -0.0689
    1W        W44248  15.974  23.238   6.768 -0.2087 -0.0073 -0.0840
    1W        W44249  11.957   4.695   3.075  0.0933  0.2500  0.1898
    1W        W44250  16.073  23.000   1.650 -0.0945 -0.3623  0.1050
    1W        W44251   9.987  12.671   0.289  0.0651 -0.0789 -0.0339
    1W        W44252  19.867   5.324   1.835 -0.1181  0.1312  0.4174
    1W        W44253   4.369   6.067   0.942 -0.1007 -0.0986  0.2013
    1W        W44254   9.493   0.356   0.378  0.1204  0.2540  0.0182
    1W        W44255  17.282  27.416   0.461 -0.1445 -0.1718 -0.1574
    1W        W44256   5.184  11.287   6.202  0.2191  0.0183 -0.0090
    1W        W44257  19.788   5.097   0.523 -0.1180  0.0079  0.0199
    1W        W44258   1.037   2.917   6.866  0.0820  0.0541 -0.1016
    1W        W44259  16.898  15.164   1.452  0.5868 -0.0631 -0.0524
    1W        W44260  13.380   2.483   1.626  0.2884  0.0183  0.0112
    1W        W44261  24.525  27.783   0.729 -0.3260 -0.1173  0.1777
    1W        W44262   7.864  12.036   7.507 -0.1386  0.0498 -0.2763
    1W        W44263  28.789  14.524   8.535  0.4466  0.0066  0.2890
    1W        W44264  20.474  23.009   8.548 -0.0572 -0.1817 -0.1170
    1W        W44265   2.880   0.935   8.802  0.1242 -0.1152 -0.0634
    1W        W44266  15.055  16.893   8.920  0.2177 -0.3218  0.4136
    1W        W44267  17.559   7.142   1.457  0.1349 -0.0064  0.0408
    1W        W44268   1.200   0.863   7.287 -0.0622 -0.1430  0.0321
    1W        W44269  15.349   8.009   2.861  0.0930 -0.1116  0.2286
    1W        W44270  12.842   9.329   1.677  0.1860  0.3604  0.2427
    1W        W44271  28.289   8.732   6.864  0.0695  0.1010 -0.2871
    1W        W44272   5.099   1.238   6.548 -0.1400  0.1345 -0.2159
    1W        W44273  18.046  18.717   2.087  0.2672 -0.1591  0.1325
    1W        W44274  23.435   7.969   1.571  0.0708 -0.0633 -0.1149
    1W        W44275  12.265  13.787   1.921 -0.4360  0.1791  0.1865
    1W        W44276   1.095   6.881   9.367  0.1627  0.1028  0.2741
    1W        W44277  20.295  18.785   7.298  0.2619  0.0181 -0.0156
    1W        W44278  22.850   9.823   7.876  0.1609  0.1907 -0.1530
    1W        W44279   1.712  18.565   7.176 -0.2044 -0.2201 -0.0057
    1W        W44280  14.037   4.565   2.229  0.3520 -0.0410 -0.1588
    1W        W44281  10.110  18.631   2.997  0.0213  0.0664  0.0891
    1W        W44282  23.027  19.366   6.913  0.5053  0.4563 -0.3408
    1W        W44283   5.389  24.336   1.301 -0.1225  0.0548 -0.1762
    1W        W44284  12.690  19.148   6.799 -0.0779 -0.2501  0.1952
    1W        W44285  20.049  19.106   7.677 -0.3885  0.1937  0.0268
    1W        W44286   5.031   8.935   1.885  0.1658 -0.0068  0.2997
    1W        W44287  20.816   3.707   3.500  0.0600  0.1504  0.3683
    1W        W44288   1.437  26.253   9.526 -0.1374  0.0892  0.0667
    1W        W44289  18.174  25.614   9.388  0.0510  0.0592  0.3009
    1W        W44290   7.249  24.013   7.037  0.1476  0.0389 -0.1760
    1W        W44291  21.590  18.600   7.728 -0.3420  0.1364 -0.0282
    1W        W44292  18.379  25.099   0.931 -0.0201 -0.1173  0.0508
    1W        W44293  21.202  16.347   9.340 -0.0252 -0.1849 -0.0453
    1W        W44294  20.118  28.433   1.959  0.3031  0.1005  0.0339
    1W        W44295  29.256  29.701   1.812  0.0439  0.0134 -0.1355
    1W        W44296  12.034  20.651   9.459 -0.0612 -0.0245  0.1223
    1W        W44297   4.816  25.765   0.519  0.2101 -0.1094 -0.1862
    1W        W44298  23.512   9.341   0.785  0.0974 -0.1621 -0.1379
    1W        W44299  12.833  24.951   8.630 -0.0241  0.0997 -0.1131
    1W        W44300  20.243   2.105   3.502  0.0489 -0.2357 -0.0485
    1W        W44301  14.957  22.070   7.915  0.1355  0.0560  0.1464
    1W        W44302  20.440   1.934   2.498 -0.3921 -0.2365 -0.0682
    1W        W44303  14.108  21.413   6.001  0.0996 -0.1088  0.0670
    1W        W44304  15.662  26.981   8.174  0.2780 -0.3558  0.1078
    1W        W44305  21.823   4.171   3.415  0.1258  0.4239  0.2053
    1W        W44306  20.828  24.789   8.907  0.2115  0.0500  0.0059
    1W        W44307  21.451  26.110   6.727 -0.2095  0.0278 -0.1096
    1W        W44308   8.746  27.108   7.978 -0.2080  0.0414 -0.1807
    1W        W44309  28.585   8.448   8.149  0.2754  0.1305 -0.1502
    1W        W44310  10.422   9.855   2.586 -0.1953  0.2462 -0.0972
    1W        W44311   7.952  14.817   6.742 -0.2651  0.0451 -0.1028
    1W        W44312  26.359  17.207   2.313 -0.1473  0.0390 -0.3023
    1W        W44313  19.568  28.551   3.335 -0.1871 -0.3196  0.0768
    1W        W44314  12.585   7.554   9.016  0.1874  0.0855 -0.1280
    1W        W44315  24.650  23.286   6.972 -0.1641 -0.0638  0.0782
    1W        W44316  14.998   9.210   0.341 -0.2053 -0.0761 -0.1427
    1W        W44317  14.143  18.912   7.470 -0.2603  0.0736 -0.2399
    1W        W44318  14.143  19.375   1.374  0.1358 -0.0817 -0.2610
    1W        W44319  18.627  22.532   1.273 -0.1015  0.1249 -0.3366
    1W        W44320  20.058  19.462   6.817 -0.3763  0.2274  0.2547
    1W        W44321  17.461   1.571   9.508 -0.2389  0.1150  0.1817
    1W        W44322  10.341  28.241   7.231  0.0064 -0.0189  0.1425
    1W        W44323   1.286  19.758   1.948  0.1855  0.0128 -0.0829
    1W        W44324   8.592  10.562   2.046 -0.1049 -0.0658 -0.3933
    1W        W44325  24.972   4.652   8.289 -0.0851 -0.2256 -0.2620
    1W        W44326   3.460  14.649   0.137 -0.0040  0.0943  0.1153
    1W        W44327  19.113  28.008   1.374  0.0045 -0.1834  0.1047
    1W        W44328   7.556  28.717   8.488 -0.5108  0.0567 -0.0773
    1W        W44329   0.615  21.335   0.138  0.1634  0.0686 -0.0609
    1W        W44330  11.424   1.289   9.221 -0.0855  0.0471 -0.1056
    1W        W44331  19.879  19.078   0.786  0.0235  0.1778  0.2988
    1W        W44332   3.814   0.139   7.891  0.2075 -0.1752 -0.1417
    1W        W44333   0.680  24.980   6.334 -0.1486  0.1279 -0.0270
    1W        W44334  27.385   5.524   2.433 -0.0384 -0.1887  0.2400
    1W        W44335  11.693  10.259   7.959  0.2255  0.0550  0.1646
    1W        W44336   0.755  18.644   7.160  0.0006  0.2929  0.0083
    1W        W44337  28.154  19.823   7.564 -0.0292  0.1349  0.0649
    1W        W44338  11.417  17.540   7.148  0.2766 -0.0589  0.1491
    1W        W44339  15.200  21.518   0.162 -0.0060 -0.2906 -0.2921
    1W        W44340   3.247  11.598   0.129 -0.1226  0.1694  0.1367
    1W        W44341  20.960  24.122   8.270  0.0931 -0.0653  0.1492
    1W        W44342   6.568  26.306   1.364 -0.3363  0.0468  0.0467
    1W        W44343  20.828  20.358   7.914 -0.1129  0.2428 -0.1082
    1W        W44344  19.318  19.590   1.146 -0.0853 -0.5881 -0.1063
    1W        W44345   4.135  23.773   8.615 -0.0697  0.1340  0.0519
    1W        W44346   5.107  20.606   9.189  0.2711 -0.1778  0.1609
    1W        W44347  17.346  21.530   0.592  0.1822  0.1658 -0.2217
    1W        W44348  13.463  12.415   1.248 -0.0823  0.1795 -0.0982
    1W        W44349   9.718  15.553   1.993 -0.0176 -0.0331 -0.0579
    1W        W44350  29.171  12.411   1.607 -0.3209 -0.0620  0.0624
    1W        W44351  11.809  29.721   0.587  0.2323  0.1924  0.0173
    1W        W44352   6.905   2.318   1.888  0.1591 -0.0620 -0.0372
    1W        W44353   9.960   1.424   7.513  0.1550 -0.1306  0.1192
    1W        W44354  17.995   8.392   2.510  0.1256  0.0060  0.1638
    1W        W44355   9.200   8.959   0.567  0.2258 -0.0444  0.1439
    1W        W44356  17.614  29.346   3.682 -0.3489 -0.0421 -0.1934
    1W        W44357  17.912  29.494   8.359 -0.1459  0.1735 -0.1378
    1W        W44358  20.161   5.315   2.722 -0.0074 -0.2743  0.1474
    1W        W44359  29.609   7.713   7.167  0.1435  0.0436 -0.0436
    1W        W44360  10.240   5.499   0.327 -0.0610 -0.1933  0.1535
    1W        W44361  23.444  27.656   0.215  0.0479  0.3069  0.2185
    1W        W44362  14.675  13.435   2.020 -0.1718  0.2891  0.0192
    1W        W44363   3.632   3.512   7.943 -0.1596 -0.0930 -0.0910
    1W        W44364  19.973   9.739   8.627 -0.0682 -0.0273  0.1635
    1W        W44365  16.976  23.262   9.502 -0.0880 -0.1153 -0.1454
    1W        W44366  23.287  28.538   3.704  0.0733  0.2521 -0.1005
    1W        W44367  26.893  27.166   8.747  0.1517 -0.1615  0.1663
    1W        W44368   3.377  12.653   9.400 -0.0625  0.2363 -0.0068
    1W        W44369  23.486  18.431   0.623  0.2315 -0.2314  0.3417
    1W        W44370  25.675  18.935   1.714 -0.3336 -0.0799 -0.3059
    1W        W44371   2.104  20.896   6.957  0.4306 -0.4231 -0.1381
    1W        W44372  21.607   2.530   2.594  0.0509 -0.0387  0.0012
    1W        W44373  26.676   9.944   0.952  0.0541 -0.3661 -0.0777
    1W        W44374  13.445  29.290   8.089 -0.0391  0.0762 -0.0661
    1W        W44375  19.572  28.278   9.215  0.0727  0.0334  0.0805
    1W        W44376  26.433  24.991   8.255  0.3329  0.1734  0.1357
    1W        W44377   8.163  27.994   7.816  0.0471  0.0405 -0.1385
    1W        W44378  20.437   7.978   0.803  0.2069 -0.2832  0.0672
    1W        W44379  25.022  23.952   0.215  0.1546 -0.0431 -0.0838
    1W        W44380  19.352  23.035   0.868  0.1041 -0.2234  0.2723
    1W        W44381  29.036   2.743   1.546 -0.2271 -0.3110 -0.0764
    1W        W44382  13.102   1.771   1.586 -0.1204 -0.0684  0.2924
    1W        W44383  11.463  25.022   1.832 -0.3695  0.0969 -0.3478
    1W        W44384   3.128  29.377   9.124  0.3554  0.0907  0.1163
    1W        W44385  10.938  12.724   8.151  0.3433  0.0268 -0.0730
    1W        W44386   4.267  21.266   2.610 -0.0400 -0.1143 -0.1901
    1W        W44387  27.586  25.808   9.143 -0.0514 -0.0090 -0.0980
    1W        W44388  16.819  19.548   0.411  0.1074  0.0195  0.0755
    1W        W44389  18.453   6.277   1.870 -0.0198 -0.3911  0.0170
    1W        W44390  27.621  16.760   8.943 -0.2780 -0.2667 -0.2224
    1W        W44391   6.331  22.798   8.806 -0.0726 -0.1160  0.1339
    1W        W44392  15.003  11.205   2.312  0.2636 -0.0474 -0.0682
    1W        W44393   7.066  21.334   9.157  0.1698 -0.5167 -0.1949
    1W        W44394   7.620  25.174   6.391  0.0117  0.2391  0.0073
    1W        W44395  16.037  27.045   0.203  0.0156 -0.4045  0.1272
    1W        W44396  14.746  16.614   1.538 -0.0699 -0.0786  0.3806
    1W        W44397   2.373  20.882   2.405  0.1945  0.0842  0.0076
    1W        W44398  23.899  21.604   0.373 -0.2304 -0.0061 -0.1719
    1W        W44399  14.576  29.123   2.955 -0.2228  0.1825 -0.0142
    1W        W44400   9.687   3.514   1.324  0.1832  0.1091 -0.2376
    1W        W44401   3.991  26.001   0.572 -0.0118 -0.3402  0.0415
    1W        W44402  27.247   2.616   7.541 -0.0221 -0.0394  0.2294
    1W        W44403  24.923   2.884   2.916  0.1462  0.1117 -0.2206
    1W        W44404  18.546  25.216   6.848  0.2555 -0.0500  0.2807
    1W        W44405   7.029  25.798   1.573  0.1484 -0.0199  0.0088
    1W        W44406  16.364   5.519   9.153  0.1212  0.0440  0.1629
    1W        W44407  21.854  18.785   0.991  0.1747 -0.0532  0.3854
    1W        W44408  19.732  10.081   2.666  0.2243  0.2402 -0.0444
    1W        W44409   6.300  11.403   7.229 -0.1730 -0.0695 -0.0371
    1W        W44410  20.458   1.741   7.792  0.1870 -0.1188  0.1730
    1W        W44411  20.658  23.995   6.492 -0.2781  0.4846 -0.0276
    1W        W44412  26.625  15.012   2.079  0.1382 -0.0442  0.0157
    1W        W44413  24.551   4.848   9.186 -0.0329  0.0793  0.4019
    1W        W44414  20.811  27.277   6.915  0.1679  0.1671  0.3145
    1W        W44415   3.605  14.753   9.210  0.1162 -0.2142 -0.1389
    1W        W44416  27.343   0.058   2.398  0.0555 -0.0060  0.1533
    1W        W44417   5.511  11.812   1.188  0.0248  0.1424 -0.2150
    1W        W44418   3.137  29.721   0.053 -0.0705 -0.1035 -0.0560
    1W        W44419  23.353  24.594   6.818 -0.3490 -0.0808  0.0224
    1W        W44420   7.829  20.075   9.118 -0.0194 -0.0234 -0.1160
    1W        W44421  10.299   8.251   8.032  0.1026  0.0058  0.0154
    1W        W44422  25.808   7.291   1.815 -0.3827 -0.2830 -0.1424
    1W        W44423   5.426  13.783   8.485 -0.0526  0.0645  0.3085
    1W        W44424  10.755  19.547   6.470 -0.3644 -0.0449 -0.0873
    1W        W44425  17.735   0.906   1.343  0.0321 -0.2502  0.3280
    1W        W44426  12.518   2.251   1.304  0.0217  0.0886 -0.1822
    1W        W44427  26.994  24.428   0.147  0.2208 -0.4814 -0.1247
    1W        W44428   2.309  17.127   0.941  0.0330  0.1943 -0.0734
    1W        W44429   2.825  21.394   9.319 -0.0895  0.0341  0.0755
    1W        W44430   4.016   8.696   0.034  0.1372 -0.0330  0.0119
    1W        W44431  16.441   4.030   1.997 -0.1838 -0.1087  0.0819
    1W        W44432  12.823  24.394   8.226 -0.3588  0.2339  0.3561
    1W        W44433  19.365   4.989   0.744 -0.1298 -0.2767 -0.0475
    1W        W44434  25.781   8.092   7.725 -0.0724 -0.0834 -0.2319
    1W        W44435   3.085  15.216   2.780 -0.1020  0.3226 -0.2679
    1W        W44436  14.157  27.197   0.750  0.1238  0.0755 -0.0155
    1W        W44437   6.816  20.114   0.538  0.3870 -0.2657 -0.0362
    1W        W44438   4.959  25.018   2.067 -0.1804 -0.1621 -0.0466
    1W        W44439  21.140  22.482   8.134 -0.0840 -0.3082  0.2624
    1W        W44440  24.290  24.790   8.865  0.2605  0.2780  0.2960
    1W        W44441   3.562  23.526   1.388 -0.1178 -0.0620  0.0690
    1W        W44442  23.447  22.129   8.740 -0.1520  0.2210  0.4152
    1W        W44443  24.300   3.123   8.005 -0.2103 -0.0394  0.1120
    1W        W44444  24.116   2.006   0.128 -0.0398 -0.3490 -0.0054
    1W        W44445  15.348   7.169   2.883  0.2175  0.1473  0.1044
    1W        W44446  26.947   0.022   8.147  0.4738 -0.0003  0.0102
    1W        W44447  21.946  17.650   6.782  0.1326  0.0449  0.1229
    1W        W44448  24.122   8.958   1.630  0.0881  0.0624  0.0366
    1W        W44449  29.368  20.285   8.200  0.1066  0.0543  0.0187
    1W        W44450  12.924   2.227   3.043 -0.0974 -0.1377  0.2256
    1W        W44451   2.726  13.403   0.905  0.1605  0.0525  0.0080
    1W        W44452  19.136  12.660   7.601  0.0565  0.2565  0.3174
    1W        W44453  23.062   6.450   8.062  0.0720  0.0366  0.1465
    1W        W44454  16.145  16.243   8.591  0.0344  0.2347 -0.0081
    1W        W44455  20.865   5.862   2.875 -0.0996 -0.1157 -0.1590
    1W        W44456  27.769  20.811   2.579  0.0206  0.0423  0.0046
    1W        W44457   7.404  17.468   8.576  0.2768  0.1598  0.0655
    1W        W44458  23.189   8.099   1.147  0.0658 -0.4433 -0.2601
    1W        W44459  21.746  15.008   9.242  0.1835 -0.2048  0.1736
    1W        W44460  27.096  17.842   7.699 -0.0759 -0.3011  0.1682
    1W        W44461  11.785  21.942   8.880 -0.0988 -0.0440  0.2045
    1W        W44462  27.299  26.473   7.530 -0.1282 -0.1622 -0.1935
    1W        W44463   7.040  24.609   7.952 -0.0802 -0.1805 -0.3549
    1W        W44464  28.707  21.339   0.400  0.0215  0.0327 -0.3768
    1W        W44465  14.001  23.268   8.003 -0.3359  0.0236  0.1077
    1W        W44466  13.092   3.421   0.705  0.0138  0.0077  0.2875
    1W        W44467   8.392  13.044   2.108 -0.2041 -0.0475  0.0552
    1W        W44468  21.653   6.745   1.913 -0.0418  0.0503  0.1867
    1W        W44469   1.071  26.572   7.652  0.0570  0.0116  0.0871
    1W        W44470  25.204  21.345   1.215 -0.0290 -0.0173  0.1118
    1W        W44471  10.813   1.957   0.120 -0.1042  0.0419  0.1701
    1W        W44472   3.256   7.936   1.414  0.2194 -0.1039 -0.0223
    1W        W44473   7.762  10.238   0.246 -0.1589  0.1995 -0.1815
    1W        W44474   4.021   3.599   2.440 -0.0867  0.1650  0.1208
    1W        W44475  26.042  12.767   8.808  0.0239  0.1157 -0.2524
    1W        W44476  19.165  29.329   1.428  0.0010  0.0327  0.1523
    1W        W44477  10.715  10.237   9.115  0.1451  0.1726 -0.2891
    1W        W44478  12.760  14.880   9.270  0.1780  0.0120 -0.1107
    1W        W44479  16.356   2.104   3.766 -0.1144 -0.0908 -0.2932
    1W        W44480   4.892  19.759   1.967  0.0090  0.0384 -0.2110
    1W        W44481  15.749  21.835   6.951  0.2388 -0.0983  0.1279
    1W        W44482  16.891  27.275   8.826  0.3664  0.0485 -0.1177
    1W        W44483  26.408   5.785   0.285 -0.0770 -0.0892  0.0634
    1W        W44484   8.584   3.600   7.564 -0.1277  0.0725 -0.1927
    1W        W44485  28.519   3.915   0.554 -0.0220 -0.0434 -0.2833
    1W        W44486  14.421  10.523   0.297  0.0305  0.2833 -0.0586
    1W        W44487  25.632  16.775   2.053  0.0924 -0.1181  0.1712
    1W        W44488   2.061   6.660   6.956  0.2353  0.0572  0.0534
    1W        W44489  28.862  22.010   1.649  0.0677 -0.0181 -0.1472
    1W        W44490  20.963  20.089   1.947  0.2591 -0.1306 -0.1261
    1W        W44491   1.360  25.560   7.933 -0.3155  0.3027  0.0377
    1W        W44492  12.750   3.890   0.304 -0.1529  0.0513 -0.2487
    1W        W44493   4.963  20.072   7.053  0.1151  0.0111  0.4966
    1W        W44494   8.455  23.791   0.643  0.1530  0.0225 -0.0920
    1W        W44495  17.334  26.994   6.874 -0.0244  0.1067 -0.1828
    1W        W44496  25.633  19.916   0.612  0.2967  0.2957 -0.2322
    1W        W44497  20.209   1.345   3.570  0.4429  0.1722  0.2586
    1W        W44498   4.244  23.232   8.886  0.1916  0.2264 -0.2059
    1W        W44499   4.542  15.387   6.663 -0.0465 -0.1075  0.3259
    1W        W44500  11.316  29.465   2.120 -0.2066 -0.0950  0.4493
    1W        W44501  26.917  22.660   2.546 -0.0479 -0.4933  0.2772
    1W        W44502  24.165  20.395   2.493  0.2743 -0.0968  0.2840
    1W        W44503  16.990  26.063   6.920  0.2882  0.1989 -0.2044
    1W        W44504  24.317   9.567   1.968 -0.1334 -0.1346 -0.2555
    1W        W44505  27.636   9.832   7.575  0.1620  0.0137 -0.0430
    1W        W44506   7.984  11.112   7.336 -0.2703 -0.2135 -0.3764
    1W        W44507  22.855  28.201   0.030 -0.0495  0.1618  0.0138
    1W        W44508   3.947   8.956   8.489  0.0926 -0.4496  0.1428
    1W        W44509   8.406  28.325   1.762 -0.1879  0.1143 -0.3017
    1W        W44510   5.115   2.636   7.365  0.0793  0.0011 -0.0253
    1W        W44511  27.911   6.047   7.419 -0.1427  0.6181  0.3006
    1W        W44512  28.919   6.364   8.167 -0.0566 -0.2761  0.0521
    1W        W44513  13.725  21.404   7.766 -0.1719  0.0001  0.1522
    1W        W44514   0.210   5.535   1.542 -0.5309 -0.4193  0.2995
    1W        W44515  19.527  18.424   0.236 -0.1025  0.0046  0.1167
    1W        W44516  20.559  16.059   7.330  0.1074  0.0359 -0.1329
    1W        W44517  10.638   1.444   1.685  0.1868 -0.1534  0.1563
    1W        W44518  18.491  22.885   7.984 -0.2749 -0.0495  0.0578
    1W        W44519  12.909  20.813   5.375 -0.1868  0.1594 -0.0648
    1W        W44520  12.336  24.574   8.477  0.0354  0.0908 -0.0996
    1W        W44521   8.056  16.639   6.312  0.0002  0.1831  0.0290
    1W        W44522   1.525   9.850   7.020  0.2365 -0.1157  0.2874
    1W        W44523  24.733  17.426   8.032 -0.0844 -0.2834  0.1609
    1W        W44524  27.373  13.258   8.775  0.4236  0.0376 -0.4733
    1W        W44525   3.789   9.629   8.688  0.0223 -0.0271  0.1375
    1W        W44526  22.775   7.279   1.015  0.2490  0.1026  0.0954
    1W        W44527  10.204  23.291   9.370 -0.3122 -0.0125  0.0800
    1W        W44528  18.353  27.678   1.400  0.0447 -0.3079  0.1165
    1W        W44529   9.614  19.143   1.980 -0.2007 -0.3351 -0.2091
    1W        W44530   3.865  16.302   6.224 -0.2931  0.0180  0.1098
    1W        W44531  29.831  15.002   2.654 -0.0434 -0.0685  0.0393
    1W        W44532  25.486   9.955   7.624 -0.3933 -0.0467 -0.1156
    1W        W44533  19.074   9.155   1.837  0.0849 -0.0604 -0.2493
    1W        W44534  12.681  28.007   9.422 -0.0089  0.0148 -0.1010
    1W        W44535  23.445  20.441   9.513  0.0997 -0.1790 -0.1332
    1W        W44536  18.207  20.270   6.348  0.1475  0.2873 -0.1302
    1W        W44537   6.302  28.116   9.118  0.0576  0.0609 -0.0675
    1W        W44538  10.125  29.409   9.219 -0.0048 -0.2891 -0.0524
    1W        W44539   0.322  27.793   9.139  0.4175 -0.2222 -0.0195
    1W        W44540  12.690  14.811   6.790 -0.0879 -0.1499  0.0320
    1W        W44541   6.474  21.611   8.990 -0.1654  0.0341 -0.0756
    1W        W44542   1.768  25.482   6.845  0.5698  0.1428  0.0127
    1W        W44543   0.324   6.965   7.794 -0.1567 -0.1604  0.1813
    1W        W44544   1.282   6.993   0.312 -0.3223 -0.1839 -0.1476
    1W        W44545  23.485  24.154   7.706  0.2883  0.0323  0.1595
    1W        W44546  11.469  11.876   5.801 -0.1809 -0.0757  0.0494
    1W        W44547  23.178  24.742   8.222 -0.3163 -0.0294 -0.0972
    1W        W44548  29.126  22.848   1.859 -0.0877 -0.2702 -0.2510
    1W        W44549  25.963   3.237   0.785 -0.1356  0.2322  0.0721
    1W        W44550   9.938  17.388   8.976 -0.1010 -0.2768  0.1385
    1W        W44551  10.558  16.861   0.761 -0.2368 -0.0514 -0.1166
    1W        W44552   2.274   7.835   1.797 -0.1646 -0.2196 -0.4350
    1W        W44553  28.501  13.908   9.122 -0.1474 -0.1618  0.1716
    1W        W44554  16.554   3.390   2.955 -0.0008  0.3078 -0.1288
    1W        W44555  15.141   6.762   3.179  0.1291 -0.2903 -0.0012
    1W        W44556  26.058  12.254   9.497  0.1139 -0.0575  0.0477
    1W        W44557  22.174  15.945   7.619  0.0041 -0.3495  0.1927
    1W        W44558   6.843   6.203   1.657 -0.4630  0.0435  0.0107
    1W        W44559   8.057   5.085   2.140 -0.1838  0.1558 -0.3920
    1W        W44560   5.263  25.953   0.662  0.0684  0.0885 -0.1838
    1W        W44561  24.321  28.079   1.960 -0.0046  0.1052  0.2224
    1W        W44562  18.066  20.308   0.717 -0.1993  0.1201  0.1327
    1W        W44563  25.468   9.646   1.674 -0.2026  0.0323 -0.0054
    1W        W44564   8.187   4.340   8.296 -0.0258 -0.2505 -0.0758
    1W        W44565  13.370   0.326   8.524 -0.1011  0.0177 -0.1572
    1W        W44566  28.396   5.904   2.238 -0.0577 -0.1399  0.0899
    1W        W44567  16.257   4.446   1.742  0.2389 -0.0097  0.1411
    1W        W44568  26.074   3.463   3.073 -0.1629  0.1012  0.0560
    1W        W44569  25.449  21.451   8.497 -0.1860 -0.1024  0.1349
    1W        W44570  17.396  16.830   0.155  0.1496  0.0495  0.3725
    1W        W44571   1.730  22.687   7.756 -0.2206 -0.2312  0.0379
    1W        W44572   4.776   9.714   2.445 -0.1827 -0.0060 -0.0279
    1W        W44573  19.489   0.999   1.239 -0.0738 -0.0309  0.0101
    1W        W44574  19.324  13.385   8.601 -0.0919  0.0185 -0.2521
    1W        W44575  15.735   7.829   9.119 -0.2797 -0.1126 -0.1908
    1W        W44576  21.639   3.257   1.178  0.2892 -0.0746  0.3161
    1W        W44577  19.957  10.419   1.131 -0.0399 -0.0049 -0.2563
    1W        W44578  14.080  26.763   6.091 -0.2061  0.1383  0.1287
    1W        W44579  24.441   7.615   7.956 -0.4844  0.1649 -0.3134
    1W        W44580   3.922  27.068   8.689  0.2440 -0.1434 -0.2708
    1W        W44581   5.648  22.042   7.832  0.1193  0.2082 -0.2986
    1W        W44582  22.102  23.543   7.360  0.0407 -0.1065 -0.0323
    1W        W44583  14.409  23.709   8.750 -0.0472  0.0038  0.0504
    1W        W44584   1.931  25.101   1.167  0.2287 -0.2016  0.0133
    1W        W44585  21.816  27.725   2.797  0.2531  0.2370 -0.3915
    1W        W44586  10.969  16.792   1.131 -0.1579 -0.1512 -0.1477
    1W        W44587   1.785  19.037   7.087 -0.2332 -0.1925 -0.0670
    1W        W44588  28.933   6.040   0.143 -0.2623  0.1338 -0.1978
    1W        W44589   0.343   2.825   2.833  0.2868  0.2169 -0.0756
    1W        W44590   9.850  28.610   1.249 -0.0037 -0.1448  0.5607
    1W        W44591  22.663   9.417   7.708 -0.1074  0.0993 -0.2813
    1W        W44592  25.352  26.807   1.049 -0.2164  0.0277 -0.0900
    1W        W44593  11.595   9.574   9.307 -0.0310  0.2384  0.2407
    1W        W44594  24.478  13.509   9.137 -0.2423 -0.0816 -0.0227
    1W        W44595  22.781  11.087   2.561  0.1486 -0.0329 -0.1021
    1W        W44596  18.140  20.340   7.946  0.4969 -0.1744  0.1659
    1W        W44597  11.549   1.943   8.806  0.0846  0.1220 -0.1412
    1W        W44598   6.946  22.755   0.998  0.2905 -0.1400 -0.1385
    1W        W44599  17.314  26.901   1.583  0.0341 -0.0505 -0.0136
    1W        W44600   2.166  13.551   7.258 -0.2126  0.3473 -0.0074
    1W        W44601  24.478  11.164   1.204  0.0690  0.2160 -0.0915
    1W        W44602   4.955   1.305   0.770  0.1994  0.2454 -0.0442
    1W        W44603   7.080  28.058   2.605 -0.2483 -0.1765  0.3015
    1W        W44604   0.274   7.500   2.128  0.2434 -0.0058 -0.2844
    1W        W44605   7.732  16.246   1.246  0.0745  0.0676 -0.2118
    1W        W44606  15.562  10.301   1.450  0.2783 -0.0509 -0.0269
    1W        W44607  27.682   4.239   7.439  0.1701 -0.0657 -0.3265
    1W        W44608  12.131  17.402   1.885  0.0490 -0.1746  0.3291
    1W        W44609  29.767   2.182   0.418  0.0180  0.2125  0.1818
    1W        W44610  22.428   3.873   8.893  0.1313 -0.2222 -0.2777
    1W        W44611  11.405  27.354   0.174  0.0679  0.0159 -0.2522
    1W        W44612  28.677  27.270   7.015 -0.0960 -0.3620 -0.1464
    1W        W44613  28.794  25.926   1.481  0.0827  0.6059 -0.0585
    1W        W44614  17.742  13.692   9.218  0.1269 -0.2474 -0.1895
    1W        W44615   2.333  25.905   1.414 -0.1645  0.3725  0.0408
    1W        W44616   0.660  25.738   8.834 -0.1411  0.0502 -0.1893
    1W        W44617  25.037   2.189   8.781 -0.0607  0.0104 -0.0586
    1W        W44618  27.175   8.394   9.303 -0.1626  0.3626  0.1019
    1W        W44619  22.558  27.730   6.524  0.0238 -0.0915 -0.1403
    1W        W44620  22.151  13.778   6.843 -0.0655  0.1764 -0.1689
    1W        W44621  22.751   1.073   3.782 -0.2713  0.3923 -0.1088
    1W        W44622  19.984   2.845   0.984  0.1931  0.0264 -0.0391
    1W        W44623   9.497   2.702   6.741  0.0611 -0.0498 -0.0244
    1W        W44624  18.309   0.548   0.265  0.0269  0.2605 -0.0529
    1W        W44625  10.273  19.983   9.017 -0.0297  0.3617  0.0418
    1W        W44626  24.013  18.636   0.500 -0.1539  0.1184 -0.3164
    1W        W44627  18.988   4.557   2.810 -0.0571  0.1866  0.2949
    1W        W44628  22.952  27.901   8.590 -0.0911 -0.0147  0.0744
    1W        W44629  28.487  26.553   0.753 -0.0203  0.0540 -0.0681
    1W        W44630   8.014  20.857   1.979 -0.1483  0.2722 -0.1484
    1W        W44631   5.726  26.135   0.849  0.3638  0.2750  0.0174
    1W        W44632  28.709  25.623   6.759  0.2555 -0.2580 -0.1367
    1W        W44633   5.376  17.703   0.096 -0.2616  0.0241 -0.3855
    1W        W44634  12.891  18.770   8.754  0.2296  0.0277 -0.0255
    1W        W44635  14.391   2.692   3.138  0.0061  0.4838 -0.0511
    1W        W44636  25.027   1.911   2.539 -0.2292 -0.1772  0.0220
    1W        W44637   1.834  13.938   7.323  0.0295 -0.1784 -0.1226
    1W        W44638  26.899   0.389   1.440 -0.0465  0.1534  0.2509
    1W        W44639   5.795   5.187   8.199 -0.2505 -0.1521  0.2314
    1W        W44640   6.242  18.940   0.318 -0.1644  0.0489 -0.0731
    1W        W44641   5.384  29.012   7.833 -0.0528 -0.0268  0.0106
    1W        W44642   4.046  21.138   8.792 -0.1522 -0.0958  0.1394
    1W        W44643  28.804  12.495   7.186  0.2050  0.0842  0.1458
    1W        W44644   5.185   4.685   3.632 -0.1470 -0.0871  0.0684
    1W        W44645  22.517  15.796   0.098 -0.0541 -0.2297 -0.2708
    1W        W44646  13.402  14.730   1.859  0.2137  0.0035 -0.2910
    1W        W44647  16.462   9.849   2.361  0.2117  0.0366 -0.0301
    1W        W44648  28.609   2.811   0.193 -0.0335 -0.1301  0.1183
    1W        W44649  11.112   5.521   9.371  0.0417  0.2375 -0.0637
    1W        W44650  19.425   0.506   1.041  0.0507  0.0581  0.0528
    1W        W44651   3.878  21.653   6.272 -0.2176 -0.1782 -0.0412
    1W        W44652   0.975  22.506   0.981 -0.0387  0.0074  0.2653
    1W        W44653  20.232  25.726   5.503 -0.1665  0.1550 -0.2317
    1W        W44654   8.532  19.910   8.722 -0.1211  0.2215 -0.1280
    1W        W44655  19.010  26.719   7.281  0.2744  0.2181  0.2615
    1W        W44656  14.089   7.233   3.637 -0.2037 -0.0671  0.0368
    1W        W44657  27.404  24.763   0.294 -0.1510 -0.2305 -0.1027
    1W        W44658   8.731  18.577   7.468 -0.1130 -0.2030 -0.1877
    1W        W44659  11.270  12.185   8.182 -0.0783 -0.0673  0.1951
    1W        W44660  16.740  23.009   0.849 -0.2535 -0.1666  0.2725
    1W        W44661  26.209   3.460   9.028  0.0664 -0.0102 -0.1880
    1W        W44662   6.826  15.711   2.448  0.0990  0.1882 -0.1287
    1W        W44663   4.605  27.632   6.606 -0.4002 -0.0658  0.5562
    1W        W44664   8.066  23.029   0.034 -0.0436  0.1226 -0.0968
    1W        W44665   0.658  10.258   2.179  0.0375  0.2933  0.1645
    1W        W44666   6.899   1.461   2.014 -0.1072 -0.4168 -0.1404
    1W        W44667   0.182   2.177   9.141  0.0577 -0.2652  0.0242
    1W        W44668  23.676   3.164   8.924 -0.0092 -0.1119 -0.3974
    1W        W44669  23.504  18.926   0.617  0.0845 -0.0242  0.0681
    1W        W44670   7.490  19.961   2.298  0.1849 -0.0544  0.0386
    1W        W44671  20.678  20.089   0.138  0.0819  0.2069 -0.1528
    1W        W44672  17.614  24.380   0.799  0.1524 -0.0552  0.0375
    1W        W44673   7.156  11.466   7.262 -0.0363  0.1348  0.1183
    1W        W44674  12.243  14.206   6.261 -0.0492  0.0451 -0.2757
    1W        W44675   7.891   4.862   7.138 -0.1493 -0.1345  0.0822
    1W        W44676   8.113   0.172   1.533 -0.4333  0.1827  0.0082
    1W        W44677  25.846  29.282   8.138 -0.0806 -0.0768  0.2465
    1W        W44678   9.384  22.156   8.970 -0.2190  0.3025  0.0044
    1W        W44679   2.814  11.821   0.012 -0.0091  0.1912 -0.0885
    1W        W44680  23.497   4.308   2.151 -0.1127 -0.1246  0.0926
    1W        W44681  28.604   4.866   9.387 -0.3523  0.0205  0.0901
    1W        W44682  13.959   0.071   8.121 -0.1902  0.0048 -0.2274
    1W        W44683  25.867   7.029   6.864 -0.0128  0.0506 -0.0036
    1W        W44684  27.630  22.748   7.205 -0.2104 -0.0552  0.3412
    1W        W44685  14.816   5.176   3.102  0.0366 -0.0865 -0.0773
    1W        W44686   0.987  15.689   1.097  0.0294 -0.1516  0.1816
    1W        W44687  24.331  27.208   0.245  0.1202  0.0410  0.1199
    1W        W44688  18.951   6.531   1.967 -0.1140  0.3155  0.0930
    1W        W44689  14.378  19.135   6.462  0.0370 -0.0284  0.0393
    1W        W44690   2.915  20.103   0.233 -0.1500  0.1060  0.1689
    1W        W44691  11.659   4.746   0.785  0.0169  0.0510  0.0460
    1W        W44692  28.341  18.912   2.485  0.2519 -0.3981  0.0067
    1W        W44693  25.820   1.503   0.047  0.0860 -0.0517  0.1304
    1W        W44694  20.872  17.394   2.363 -0.0979  0.0188  0.4776
    1W        W44695   2.872  15.352   0.705  0.2553 -0.0416  0.0952
    1W        W44696  21.820   7.167   9.352 -0.1150 -0.2565 -0.0587
    1W        W44697  26.518  24.267   0.005  0.0149 -0.1393  0.0984
    1W        W44698   3.524  19.088   7.647  0.0206 -0.0085  0.2571
    1W        W44699  27.424  29.091   0.685  0.0358  0.1251  0.4588
    1W        W44700   6.444  16.524   7.268  0.1685 -0.1020  0.2825
    1W        W44701   1.180  15.544   7.969  0.2097  0.3106 -0.3742
    1W        W44702   9.778  27.914   8.245  0.1638  0.1216  0.0908
    1W        W44703  10.939  25.027   2.153  0.0437  0.0503  0.0472
    1W        W44704   1.218   7.281   8.116  0.1101  0.2858  0.0712
    1W        W44705  29.046  18.458   8.224 -0.1064 -0.0786 -0.1140
    1W        W44706  12.063  10.560   9.299 -0.1626 -0.1513  0.0259
    1W        W44707  21.056  14.628   7.897 -0.3901 -0.0140 -0.4700
    1W        W44708  23.742  15.786   0.425 -0.1312 -0.2334  0.0400
    1W        W44709   0.810   4.455   2.572  0.2392 -0.1809  0.1316
    1W        W44710  26.459   0.574   8.614 -0.0287 -0.0980  0.2530
    1W        W44711  13.788  27.138   0.324  0.3086  0.2428  0.0650
    1W        W44712  20.756   1.540   0.349  0.0040  0.0934 -0.0936
    1W        W44713  10.110   0.183   1.138 -0.2972  0.0229  0.0585
    1W        W44714  28.188  20.859   7.359 -0.0719  0.1177  0.0923
    1W        W44715  28.336   6.400   7.337 -0.0045  0.0015  0.0844
    1W        W44716  16.262  29.324   7.906 -0.2983 -0.1118 -0.1234
    1W        W44717  17.560   3.302   9.316  0.5400 -0.0890  0.2375
    1W        W44718  29.769  27.797   6.499  0.1977  0.1964 -0.1247
    1W        W44719  18.661   3.651   2.860 -0.1787 -0.0508 -0.2207
    1W        W44720  28.755  21.346   1.121  0.1773 -0.0010 -0.1560
    1W        W44721  24.486   6.793   1.221  0.1123 -0.0997 -0.1490
    1W        W44722  17.167  28.665   0.315  0.0887  0.0933 -0.4005
    1W        W44723  10.252  29.357   0.180  0.3693  0.0995  0.0373
    1W        W44724   5.592   6.820   0.330 -0.1436  0.2038 -0.2478
    1W        W44725   1.589   8.112   6.887  0.0454 -0.2952 -0.0401
    1W        W44726  19.931   6.943   0.993 -0.2135  0.0386  0.0927
    1W        W44727  27.246  16.449   6.415 -0.0321  0.0706  0.1517
    1W        W44728   4.057  12.802   9.038  0.1743  0.2775 -0.1544
    1W        W44729  23.733  25.333   0.384 -0.1226  0.0011  0.0037
    1W        W44730  24.900   8.540   0.083 -0.3888  0.0467 -0.0948
    1W        W44731  18.128  16.280   6.634 -0.1423 -0.0170 -0.0826
    1W        W44732  19.289   6.309   2.392 -0.0292 -0.0561 -0.1770
    1W        W44733  22.646  26.758   8.738 -0.2693 -0.0958 -0.0257
    1W        W44734   2.820  18.150   6.874  0.1210  0.1451  0.3284
    1W        W44735  12.080  13.121   6.774 -0.0218 -0.1128  0.1370
    1W        W44736   8.563  10.790   6.488  0.0687 -0.0767 -0.1196
    1W        W44737  18.342  29.475   9.156 -0.0398  0.2766 -0.4919
    1W        W44738  27.845  19.899   9.430  0.2338  0.1026 -0.5983
    1W        W44739  18.833   0.281   0.172 -0.0532 -0.1472  0.0846
    1W        W44740   5.904  23.366   1.719 -0.0861  0.0342 -0.0850
    1W        W44741  21.949  14.233   7.301  0.0265 -0.0088 -0.2704
    1W        W44742   0.811  10.662   9.209  0.0750 -0.0248  0.0897
    1W        W44743   8.565  13.103   1.149 -0.0147  0.1210  0.1574
    1W        W44744   0.163  14.880   3.085 -0.3252 -0.3413 -0.0278
    1W        W44745   3.157  23.876   8.668 -0.0448 -0.1576 -0.2343
    1W        W44746   9.288   3.249   1.093 -0.2029 -0.1512 -0.1359
    1W        W44747  26.901  11.421   7.495  0.1516  0.2401  0.1315
    1W        W44748  11.534   0.625   1.663  0.0214  0.0812 -0.1614
    1W        W44749   2.012   2.647   2.471 -0.4192  0.1094  0.1830
    1W        W44750   4.469  27.218   1.448 -0.1131  0.4504 -0.0745
    1W        W44751  12.740  19.955   7.329  0.3229 -0.0399  0.1635
    1W        W44752   0.364   3.685   3.347 -0.0816  0.1985 -0.2044
    1W        W44753  29.730   9.269   8.824  0.0307 -0.0090 -0.1354
    1W        W44754   0.342  29.763   0.751 -0.0937  0.2036 -0.0876
    1W        W44755   7.087   4.006   1.144  0.2697 -0.2527  0.1670
    1W        W44756  27.716   1.687   8.819  0.0073 -0.0494 -0.3568
    1W        W44757  11.397  18.666   7.536  0.1598  0.1165 -0.1677
    1W        W44758  27.615  16.955   2.643  0.0684 -0.1593 -0.0572
    1W        W44759  25.146   8.047   0.042 -0.1272 -0.3878  0.0956
    1W        W44760  11.976  25.926   1.911  0.2701 -0.3050 -0.2185
    1W        W44761  25.553  24.525   1.089 -0.0448 -0.2448  0.0736
    1W        W44762   0.569   2.044   0.343 -0.1523  0.0031 -0.2459
    1W        W44763  13.177   1.498   3.442  0.0531  0.0095  0.2719
    1W        W44764  24.540  19.735   2.163  0.0526  0.2108 -0.3047
    1W        W44765  29.024  13.677   7.637  0.0707  0.3628  0.0005
    1W        W44766  14.237  15.318   0.709  0.2697  0.1223 -0.1021
    1W        W44767   0.340  21.015   1.906 -0.3743 -0.1068 -0.1848
    1W        W44768  19.543  11.555   0.146  0.0247  0.0249 -0.0257
    1W        W44769   0.273  17.173   7.343  0.2928 -0.3777 -0.0567
    1W        W44770  20.761  26.618   2.615  0.0708 -0.0035  0.1028
    1W        W44771   8.497  13.635   8.719 -0.1742 -0.0807 -0.1567
    1W        W44772   8.212  14.724   2.346 -0.3225 -0.1583 -0.0115
    1W        W44773  29.856   4.543   1.367 -0.2069  0.1947 -0.2120
    1W        W44774   5.466   3.459   7.130  0.0120 -0.0674 -0.0887
    1W        W44775   1.482   4.839   2.098  0.1179 -0.1442  0.0438
    1W        W44776  13.432   0.765   8.303 -0.0877 -0.2195  0.0664
    1W        W44777  16.707  26.028   6.474  0.0990 -0.0378 -0.0969
    1W        W44778  16.286   9.402   2.995 -0.0548  0.0460  0.0996
    1W        W44779   6.949  20.505   1.985 -0.0544 -0.0720 -0.0722
    1W        W44780  25.763   4.059   7.802  0.1317 -0.0317  0.1651
    1W        W44781  27.626   6.890   8.564  0.0079 -0.0373 -0.1003
    1W        W44782  10.607  13.517   6.933 -0.3121  0.1022  0.0819
    1W        W44783  24.608   1.823   0.620  0.0582 -0.0804 -0.2278
    1W        W44784   5.865   2.040   0.876  0.2400 -0.2237 -0.1720
    1W        W44785   5.680  28.627   6.399  0.1443  0.1763 -0.0928
    1W        W44786   9.442   3.608   2.451 -0.1527 -0.2115  0.1300
    1W        W44787   7.575  27.713   8.939  0.0002  0.0860 -0.1429
    1W        W44788  23.069   4.496   3.404 -0.2051 -0.0571 -0.1823
    1W        W44789  23.320  17.112   6.776  0.0633  0.2016 -0.0554
    1W        W44790  29.591  18.371   2.254 -0.2516 -0.3307  0.1687
    1W        W44791  15.411  20.312   1.415  0.0202  0.0968 -0.3667
    1W        W44792  10.099  27.831   9.027  0.0736  0.1742  0.3808
    1W        W44793  18.467   7.522   9.371  0.0531  0.2877  0.0131
    1W        W44794  16.479  27.919   7.949 -0.0195  0.0114 -0.1789
    1W        W44795   2.441   7.858   8.831  0.4575  0.3731 -0.0448
    1W        W44796  21.316  23.068   5.933  0.0130  0.1916  0.3424
    1W        W44797   7.265   1.413   9.334 -0.0780 -0.2209 -0.1393
    1W        W44798   4.832  25.896   7.343 -0.0952  0.3536  0.0706
    1W        W44799  24.986  19.955   2.151  0.1737  0.2210  0.0529
    1W        W44800  22.333  17.002   0.539  0.1398  0.2046 -0.4373
    1W        W44801  27.390  22.709   2.313  0.1584  0.1891 -0.2424
    1W        W44802  10.423   1.580   3.193  0.0893 -0.0584  0.1882
    1W        W44803  23.564  11.061   8.041  0.0118  0.3317 -0.1946
    1W        W44804  26.685   0.628   0.997 -0.1629 -0.1265  0.0266
    1W        W44805  24.584   7.008   8.980 -0.1305 -0.5918  0.2197
    1W        W44806  28.687   4.381   8.168  0.0999 -0.0612  0.1216
    1W        W44807  18.644  16.127   9.038 -0.1303  0.2345  0.1981
    1W        W44808   2.580   4.405   2.456 -0.1532  0.1655  0.0228
    1W        W44809  10.371  13.396   1.951  0.0676 -0.4519  0.2295
    1W        W44810  14.060   4.605   3.740 -0.2525  0.2773 -0.1607
    1W        W44811   5.610  24.296   6.361 -0.0024 -0.4836  0.0846
    1W        W44812  23.677   4.938   0.176 -0.3367 -0.0728 -0.2725
    1W        W44813  27.495  25.204   2.319 -0.0161  0.0328 -0.2810
    1W        W44814   0.539  12.906   2.636  0.1251  0.3454  0.3069
    1W        W44815  22.920   1.768   3.263 -0.0690  0.1128 -0.1391
    1W        W44816  10.565  28.177   8.466 -0.2884  0.1951 -0.2393
    1W        W44817  24.308  19.774   7.231 -0.3308  0.1404 -0.3392
    1W        W44818   9.439  28.789   6.750  0.1741  0.1949 -0.1793
    1W        W44819  26.217  25.649   6.783  0.1427  0.0119 -0.4948
    1W        W44820   3.557   8.851   7.079  0.2917  0.1067 -0.2016
    1W        W44821   6.280  25.465   1.944 -0.5422  0.0883 -0.1948
    1W        W44822  27.761   7.300   0.930  0.2570 -0.0071 -0.0403
    1W        W44823  28.653   0.576   8.583  0.2857  0.0282  0.0310
    1W        W44824   6.811  14.831   7.507  0.0920  0.0543  0.2367
    1W        W44825  19.184  16.379   7.305  0.0256 -0.1341 -0.0896
    1W        W44826  12.576   2.104   3.766  0.0091  0.2176  0.2130
    1W        W44827  17.355  11.721   8.329  0.5252  0.0273  0.2991
    1W        W44828  10.532  20.480   0.375 -0.0609 -0.0126 -0.3291
    1W        W44829   2.545   4.271   9.295  0.1460  0.0064  0.1855
    1W        W44830   2.253  11.159   2.181 -0.0832 -0.2043 -0.2385
    1W        W44831  13.552  22.668   6.575  0.1388  0.3397  0.1600
    1W        W44832  26.682  15.583   7.268  0.0336  0.3390 -0.1149
    1W        W44833  15.729  23.764   8.599 -0.0888 -0.0174 -0.2512
    1W        W44834  19.937  18.957   1.665  0.3104  0.0050  0.0299
    1W        W44835  11.267  21.336   6.372 -0.0018 -0.2939  0.1254
    1W        W44836  23.993   2.471   2.594  0.0245  0.2589  0.0185
    1W        W44837  16.324  11.009   2.035 -0.1928 -0.2196 -0.1738
    1W        W44838   4.882  20.982   6.878 -0.2511  0.0203  0.4901
    1W        W44839  13.133   9.555   0.378 -0.1591 -0.1408 -0.3127
    1W        W44840  22.923  20.109   8.032  0.0765  0.2436  0.4340
    1W        W44841  23.763  11.852   1.208 -0.0721 -0.4639 -0.0526
    1W        W44842  16.940  18.861   7.406  0.1093  0.0436  0.1450
    1W        W44843  16.918  11.393   8.490  0.0685  0.2141 -0.0579
    1W        W44844  11.020  23.157   0.368 -0.1718 -0.1150  0.1953
    1W        W44845   9.190   1.434   1.492 -0.0305  0.0048 -0.2050
    1W        W44846  26.357  26.263   7.539 -0.1709 -0.0813 -0.2563
    1W        W44847  22.910   0.317   2.728 -0.0971  0.0451  0.4401
    1W        W44848  23.254   7.441   1.452  0.0922 -0.0305 -0.0370
    1W        W44849   1.392  17.805   2.553 -0.1584  0.0594 -0.0583
    1W        W44850   9.168  11.418   1.784 -0.0818 -0.0797  0.3441
    1W        W44851  23.387   0.176   2.402  0.0315  0.2637  0.1319
    1W        W44852  25.612  12.045   1.453  0.2138 -0.0591 -0.0951
    1W        W44853  19.802  15.202   1.852 -0.2816  0.1953 -0.1081
    1W        W44854   5.147   4.581   7.774 -0.0155  0.3138  0.2538
    1W        W44855   0.746  27.188   0.260  0.0755  0.0814  0.3369
    1W        W44856   8.135   3.089   0.480  0.1205  0.1867 -0.1519
    1W        W44857   0.613  27.190   8.948 -0.0422  0.3859 -0.1957
    1W        W44858   4.462  21.464   8.762  0.0777 -0.2506  0.0588
    1W        W44859  26.307  20.707   1.146  0.2118 -0.2422  0.0267
    1W        W44860  25.265   8.934   9.409  0.1480 -0.4117  0.0742
    1W        W44861  15.285  15.332   8.544 -0.1120 -0.3018  0.1801
    1W        W44862   6.020   2.786   2.698  0.0652 -0.0420 -0.0955
    1W        W44863   4.941  16.009   1.894 -0.1364  0.0583  0.0561
    1W        W44864   7.279   2.529   0.619 -0.0562  0.3412 -0.1406
    1W        W44865   6.738  19.483   5.724  0.1799  0.2452 -0.0565
    1W        W44866  12.327   5.969   0.621 -0.0369  0.2349 -0.4041
    1W        W44867  10.616  10.915   7.441  0.1033 -0.0699  0.4382
    1W        W44868   5.297  16.501   7.825 -0.0050 -0.0783  0.0404
    1W        W44869   2.325  25.347   8.073 -0.0934 -0.3208  0.1617
    1W        W44870  19.419   3.851   2.930 -0.3211 -0.1307 -0.0712
    1W        W44871   6.087   9.619   9.014 -0.0647 -0.0382 -0.0014
    1W        W44872  20.959  13.978   9.289 -0.0787 -0.1089 -0.0864
    1W        W44873  28.193  23.268   1.869  0.1798  0.0610  0.1289
    1W        W44874  29.610   0.099   6.959 -0.2722 -0.2033  0.0701
    1W        W44875   4.156  18.330   7.868 -0.1468  0.1576 -0.0932
    1W        W44876   8.388   8.440   7.664 -0.0129  0.2686 -0.2822
    1W        W44877  28.893  11.442   8.665 -0.0647 -0.1521 -0.1463
    1W        W44878  21.661  17.158   6.208 -0.0310  0.0315  0.0251
    1W        W44879   8.651  11.073   8.790 -0.2135  0.0156 -0.0462
    1W        W44880  26.537  22.340   9.501 -0.2184  0.1591 -0.0244
    1W        W44881  16.029  29.089   2.575  0.0482 -0.2066 -0.0106
    1W        W44882   6.619  12.600   7.804  0.0554  0.0194 -0.1109
    1W        W44883  24.984   6.655   9.268  0.1437  0.2174  0.1813
    1W        W44884  14.873  23.479   1.378  0.0163  0.0013 -0.0731
    1W        W44885  19.938  23.242   6.245  0.0781 -0.2475  0.0939
    1W        W44886  10.844  11.063   3.115  0.0623 -0.3125  0.5453
    1W        W44887  29.227  20.483   1.493 -0.0192 -0.2291 -0.1652
    1W        W44888  13.452   3.986   3.869 -0.1647 -0.0545  0.0642
    1W        W44889   2.445  20.092   6.688 -0.1319 -0.0575  0.0069
    1W        W44890   7.186   9.826   2.602  0.2243 -0.0624  0.2802
    1W        W44891   9.751  22.402   0.342  0.2456  0.1897 -0.0252
    1W        W44892  18.190   0.983   8.029  0.0426 -0.0968  0.1990
    1W        W44893   2.900   3.649   0.742 -0.2112  0.0498 -0.2103
    1W        W44894   0.875   3.376   8.049 -0.0943  0.0611  0.0626
    1W        W44895  22.977  20.563   0.323  0.3483  0.1925  0.2847
    1W        W44896   2.222   1.225   1.236  0.3284  0.0694  0.1751
    1W        W44897  26.189  29.194   9.420 -0.1401  0.0206 -0.0052
    1W        W44898  26.307   4.093   0.390 -0.1709 -0.1886 -0.1663
    1W        W44899  19.125   9.751   9.465  0.1057 -0.0775  0.1184
    1W        W44900  17.402   8.836   3.272 -0.0588  0.1876 -0.3508
    1W        W44901  18.769  24.852   1.231  0.0853  0.0637 -0.0834
    1W        W44902  15.611   6.627   1.095 -0.0885 -0.2603 -0.1134
    1W        W44903  20.797   5.663   0.746 -0.1602  0.0869 -0.0033
    1W        W44904  26.963   6.793   1.974 -0.0332 -0.1003  0.0497
    1W        W44905  17.934   0.831   0.465 -0.0769  0.0595  0.0539
    1W        W44906  27.636  10.234   0.441 -0.2078 -0.1276 -0.3124
    1W        W44907  12.707  18.852   1.796 -0.1497  0.0660  0.1675
    1W        W44908   4.395   9.349   0.405  0.1652  0.3373 -0.0102
    1W        W44909   4.855  24.209   6.168 -0.2568  0.0653 -0.0745
    1W        W44910   5.831  12.295   7.149  0.3237  0.0305 -0.3361
    1W        W44911  20.922  17.753   6.838  0.0278 -0.1408 -0.1090
    1W        W44912  27.003   4.256   0.738  0.0411  0.0884  0.2151
    1W        W44913   5.157   9.011   9.299  0.1901 -0.2432  0.3099
    1W        W44914   5.553  27.229   9.078  0.0449  0.1184  0.1114
    1W        W44915  29.780  26.483   9.333  0.1645  0.3011  0.1469
    1W        W44916  16.399  26.977   0.588 -0.0487 -0.1683 -0.2938
    1W        W44917  21.777  29.271   8.419  0.1352  0.0099 -0.0283
    1W        W44918  20.784  15.255   1.071 -0.0525  0.1312  0.1827
    1W        W44919  29.855  24.319   2.011 -0.2576  0.3444  0.1503
    1W        W44920  21.723  23.088   1.097  0.1090  0.0825  0.1505
    1W        W44921  10.976  27.294   0.382 -0.0231  0.2914 -0.0056
    1W        W44922   2.148   7.693   0.235  0.1200 -0.0149 -0.0629
    1W        W44923  28.940  22.921   9.128 -0.0840  0.1297 -0.1727
    1W        W44924  28.978   9.235   6.391 -0.3413 -0.1704  0.2566
    1W        W44925   7.628  21.400   2.322 -0.1923 -0.0486 -0.0985
    1W        W44926   9.515  21.127   9.197  0.1404 -0.0868 -0.0551
    1W        W44927   0.157  23.940   9.301 -0.2824 -0.0454  0.1221
    1W        W44928  10.816  10.440   7.078  0.0007  0.3430  0.0083
    1W        W44929  19.711  16.297   8.487 -0.1658 -0.1766  0.2440
    1W        W44930  10.258   6.379   8.539 -0.2283  0.0281  0.1185
    1W        W44931  14.996  12.348   0.154 -0.0758 -0.2343 -0.0599
    1W        W44932   4.708  12.256   1.194 -0.0606 -0.1287 -0.1291
    1W        W44933  15.285  14.170   9.258  0.0417  0.1965  0.1064
    1W        W44934   1.391   5.229   2.610 -0.1821  0.0594  0.1175
    1W        W44935   7.758  12.854   2.120  0.0712 -0.2490 -0.0207
    1W        W44936   5.057  27.212   6.345 -0.0360  0.0922  0.0654
    1W        W44937   3.365  18.228   8.862  0.1401 -0.2589 -0.1479
    1W        W44938   7.038   3.788   0.641  0.0211 -0.0783  0.0020
    1W        W44939  12.235  16.232   9.207 -0.3437  0.1523 -0.2514
    1W        W44940  18.605   9.790   1.271  0.2577 -0.2540  0.0422
    1W        W44941  28.431   6.467   2.361  0.0902  0.1314 -0.0084
    1W        W44942  22.342  27.660   7.562 -0.1012 -0.1967 -0.1284
    1W        W44943  15.032  14.872   6.837 -0.1000 -0.1114 -0.3046
    1W        W44944  23.742  20.990   0.736 -0.4452 -0.1710 -0.2167
    1W        W44945  26.689  26.800   8.089 -0.0753  0.0169  0.2556
    1W        W44946   4.854   9.092   0.606  0.0878 -0.2153 -0.3625
    1W        W44947  26.597  27.946   1.674  0.0883 -0.1016  0.0120
    1W        W44948  23.462   7.768   8.149 -0.5558 -0.4028  0.1785
    1W        W44949  15.253  17.717   7.226  0.1958 -0.0204  0.0968
    1W        W44950   9.519   6.809   7.867  0.0678  0.3293  0.2763
    1W        W44951  18.928  19.177   1.226  0.3576  0.2142  0.1833
    1W        W44952  13.163  12.434   0.814 -0.0853 -0.0899 -0.0778
    1W        W44953  27.882  15.126   0.879  0.0392  0.2223  0.1061
    1W        W44954  20.677  10.378   0.158  0.2025 -0.0690 -0.2534
    1W        W44955   8.034   2.407   7.836 -0.1471 -0.3130 -0.0606
    1W        W44956  22.992  13.015   9.390  0.1803 -0.0280 -0.3285
    1W        W44957  16.760  27.664   0.988 -0.3777 -0.3288  0.2428
    1W        W44958  17.302   1.698   8.377 -0.5470  0.2899 -0.0546
    1W        W44959  16.814  25.926   0.437 -0.0659  0.1599  0.2908
    1W        W44960  25.089  24.266   8.783  0.1955  0.3736  0.0427
    1W        W44961  22.503  18.317   0.387  0.3108  0.0120  0.1723
    1W        W44962   1.990  15.941   7.173 -0.1832  0.0340 -0.4000
    1W        W44963  13.271  25.157   8.901  0.1852  0.0494  0.0033
    1W        W44964  10.372   0.680   1.868 -0.2162 -0.0309 -0.2223
    1W        W44965  13.495   6.857   2.920  0.0388  0.1977 -0.2748
    1W        W44966  26.939  21.214   6.973  0.0475  0.1119 -0.3189
    1W        W44967  29.440  18.640   0.175 -0.1007 -0.3554  0.0382
    1W        W44968  26.532  24.265   8.778  0.0663  0.2725  0.2672
    1W        W44969   4.758   5.319   2.513 -0.0373 -0.3675 -0.2212
    1W        W44970  28.358  13.027   6.928  0.0624  0.1553 -0.3616
    1W        W44971  15.665   4.623   8.418  0.0402  0.0705  0.1717
    1W        W44972   9.582   6.289   8.019  0.1258 -0.1607 -0.2751
    1W        W44973  11.788   6.578   0.655 -0.0843 -0.1374  0.1678
    1W        W44974   8.141  24.769   1.697  0.2441 -0.0271 -0.2055
    1W        W44975  22.099   4.029   3.907  0.1765 -0.3643 -0.0665
    1W        W44976  14.126   2.848   1.298  0.1604 -0.2605  0.1250
    1W        W44977   4.691  14.359   1.524 -0.2229  0.4267 -0.2982
    1W        W44978   3.209  23.329   8.571  0.0155 -0.5211  0.0233
    1W        W44979  19.401   9.156   2.696  0.0689  0.1137 -0.1899
    1W        W44980  26.355  14.202   2.360  0.0234 -0.1866  0.0767
    1W        W44981  27.386  17.854   7.247 -0.0380 -0.0483  0.0714
    1W        W44982  19.336  12.375   1.377  0.0051 -0.3031 -0.1520
    1W        W44983   6.632   7.587   8.963 -0.0605 -0.2271 -0.1442
    1W        W44984  29.593  13.161   1.999  0.0408  0.0521 -0.3366
    1W        W44985  16.227  14.726   6.321 -0.1930 -0.0890 -0.0451
    1W        W44986  19.818  13.193   1.696  0.1185  0.0277  0.1437
    1W        W44987  24.964  12.307   2.068  0.0737 -0.1442 -0.1945
    1W        W44988   6.012  22.904   8.001 -0.1016  0.1327  0.0888
    1W        W44989  28.858   3.014   2.019 -0.1408 -0.0356  0.1745
    1W        W44990  15.820   2.240   3.089  0.5516  0.0603  0.0547
    1W        W44991  18.151   6.100   8.371  0.3847 -0.3212 -0.2560
    1W        W44992   3.815  17.600   9.222 -0.0157 -0.1134  0.0272
    1W        W44993  23.072   8.205   0.046  0.1166 -0.0405 -0.1002
    1W        W44994   3.260   1.269   8.631  0.0141 -0.0732  0.2949
    1W        W44995   8.044   2.161   0.917 -0.0838 -0.2574 -0.2341
    1W        W44996  25.566  26.109   2.348  0.0594  0.2822 -0.3844
    1W        W44997  10.777   6.745   0.087  0.1908 -0.1065  0.0793
    1W        W44998  23.953  17.357   9.418  0.1446 -0.0305  0.0224
    1W        W44999  14.408  28.313   1.910  0.0074 -0.0527  0.0337
    1W        W45000  29.011  28.799   2.266 -0.2090 -0.0654 -0.0215
    1W        W45001  20.751  11.051   9.048  0.0525 -0.0914  0.1860
    1W        W45002  24.004   4.297   3.070 -0.1083 -0.1755  0.2139
    1W        W45003  26.644   5.045   8.240 -0.1506 -0.0813 -0.1107
    1W        W45004  13.131  14.309   7.517  0.2166 -0.0130  0.0172
    1W        W45005  27.150   1.225   6.721 -0.1314 -0.3093 -0.2682
    1W        W45006  19.434  24.930   7.128 -0.0564  0.1771  0.0231
    1W        W45007  11.014  29.422   7.857  0.0209  0.0506  0.0160
    1W        W45008  16.415  19.799   8.869 -0.2453  0.3321  0.0274
    1W        W45009  24.665  15.094   0.525 -0.2422  0.0581  0.1982
    1W        W45010  21.067  23.222   9.338  0.3476 -0.1278 -0.0690
    1W        W45011   3.375   1.753   1.517 -0.1244 -0.1643 -0.0335
    1W        W45012  22.610  11.127   0.386 -0.0425  0.0916  0.0361
    1W        W45013   3.599  25.108   8.445 -0.0168 -0.1246  0.0234
    1W        W45014  22.114  15.563   7.315  0.1796  0.1599 -0.1467
    1W        W45015  15.338  16.671   7.210  0.0063 -0.1163 -0.2414
    1W        W45016  19.570   0.874   0.759  0.0346 -0.0422 -0.0917
    1W        W45017  15.732  20.587   1.042 -0.0493 -0.0606 -0.0792
    1W        W45018  22.551  22.173   1.773  0.1058 -0.0284  0.3170
    1W        W45019  25.013  12.191   2.529 -0.0325  0.1042 -0.0300
    1W        W45020  29.839   7.217   0.607  0.1309  0.3268 -0.0062
    1W        W45021  16.621  20.602   6.785  0.0148  0.1342  0.3736
    1W        W45022   5.980  26.361   0.019 -0.1213  0.3464 -0.0005
    1W        W45023  29.061   7.025   2.776 -0.1823  0.2266 -0.0819
    1W        W45024   6.368   8.651   1.423  0.5042 -0.1194  0.2292
    1W        W45025  11.988  21.385   7.366 -0.1401 -0.1577 -0.1092
    1W        W45026  14.241  21.023   7.737 -0.0201  0.0355 -0.0682
    1W        W45027  29.469  13.201   9.287 -0.1750  0.0885 -0.1176
    1W        W45028   7.235  10.007   8.484  0.3329 -0.2140 -0.2196
    1W        W45029  24.039  27.802   0.679 -0.0526 -0.2162 -0.1085
    1W        W45030   5.349  12.830   2.290  0.0855  0.2365 -0.0127
    1W        W45031  22.241  26.226   1.184  0.2704  0.2965  0.4697
    1W        W45032  29.504  29.120   9.459 -0.0837 -0.0384  0.0824
    1W        W45033  13.398   4.475   9.439  0.0722 -0.1081  0.0923
    1W        W45034  11.478  27.643   1.972  0.1256 -0.1121 -0.1374
    1W        W45035   8.406   3.840   1.638  0.1930  0.2400  0.2568
    1W        W45036   6.838   2.735   8.054 -0.0968  0.0601 -0.0069
    1W        W45037   3.525  12.620   6.858  0.1941 -0.0396  0.2047
    1W        W45038  23.197  17.979   7.536  0.1702  0.1398 -0.2190
    1W        W45039   5.307  26.527   1.283  0.1771 -0.3026  0.0641
    1W        W45040   8.913  23.887   6.581  0.0672  0.0004  0.1287
    1W        W45041  28.456  21.179   9.122 -0.2711  0.1346 -0.1417
    1W        W45042  10.720  15.285   9.068  0.0003  0.0944  0.2466
    1W        W45043  24.366  27.739   3.608 -0.4365  0.2007  0.1079
    1W        W45044  13.523  27.588   2.681  0.1886  0.3798 -0.0815
    1W        W45045  29.235   8.748   1.949  0.1072  0.1273  0.0020
    1W        W45046   8.067  28.805   6.253 -0.1493 -0.0810  0.1190
    1W        W45047   0.683  21.571   8.081 -0.1081 -0.1613  0.1936
    1W        W45048   6.556   9.398   6.579 -0.1539 -0.1020 -0.1715
    1W        W45049   6.014   9.006   8.346 -0.1511 -0.0791 -0.1334
    1W        W45050  28.742  25.059   9.391  0.0416  0.0798  0.1299
    1W        W45051   7.212   7.457   7.048  0.2354 -0.1476 -0.1812
    1W        W45052   7.492   3.550   0.756 -0.3494  0.0616  0.0840
    1W        W45053   8.865  14.236   1.326 -0.0904  0.0771 -0.0068
    1W        W45054  16.518  14.206   8.151 -0.2518 -0.4507  0.1693
    1W        W45055   4.596   7.800   9.195 -0.0542 -0.2056 -0.0445
    1W        W45056   3.230  17.495   2.635 -0.1519  0.1915 -0.1672
    1W        W45057  13.843   8.051   8.144  0.0158  0.2785 -0.2089
    1W        W45058  27.542   6.136   1.673 -0.3585  0.0639  0.2350
    1W        W45059  22.286  20.019   8.742  0.1652 -0.3376 -0.0266
    1W        W45060  17.058  28.304   8.692 -0.0453  0.0291 -0.3344
    1W        W45061  21.478  12.958   7.604  0.0821  0.0669  0.0023
    1W        W45062   9.553  18.535   8.293 -0.0731 -0.1036  0.2106
    1W        W45063  18.200  14.344   8.013 -0.1768 -0.1515 -0.2046
    1W        W45064   7.195   5.475   8.409  0.3490  0.5623 -0.5374
    1W        W45065   5.684  18.097   0.189  0.1582 -0.1365  0.1941
    1W        W45066  13.230   7.176   3.181 -0.0927  0.2711 -0.0744
    1W        W45067  16.174  21.068   5.734  0.1034 -0.0975  0.0623
    1W        W45068   9.181  18.107   5.764  0.3117 -0.0745 -0.0315
    1W        W45069   6.886  22.506   1.770  0.0268  0.2091  0.2459
    1W        W45070   7.382  16.021   9.506 -0.0610  0.1483 -0.0670
    1W        W45071   1.986  28.796   0.440  0.0740  0.1095 -0.3820
    1W        W45072   2.891   1.383   2.137  0.1093 -0.0045 -0.1904
    1W        W45073  12.303  12.647   0.529 -0.0304  0.4190  0.0074
    1W        W45074  21.785  25.662   2.264 -0.0622  0.0524 -0.1106
    1W        W45075  24.156  17.364   1.348  0.1380 -0.3473  0.0058
    1W        W45076   1.146   4.350   7.603 -0.2370 -0.2551 -0.0721
    1W        W45077  12.662  21.881   9.053  0.1826  0.0922  0.0906
    1W        W45078  10.961  14.620   0.057  0.2360  0.2478 -0.3707
    1W        W45079  13.771   3.321   1.509  0.1106  0.1766 -0.0511
    1W        W45080  18.047  11.375   0.224  0.0873  0.2061  0.0088
    1W        W45081  19.622  28.727   1.829 -0.0337  0.1710  0.0425
    1W        W45082  17.536  20.091   0.035  0.0705  0.0706  0.1075
    1W        W45083  25.757   0.558   3.306 -0.2267  0.1177  0.3553
    1W        W45084  10.584  15.308   2.054 -0.3049 -0.3225 -0.0409
    1W        W45085  24.754  15.749   8.174 -0.1408 -0.0427 -0.0521
    1W        W45086  15.769   8.016   0.859  0.1468  0.0713 -0.1674
    1W        W45087   3.466  27.213   9.076  0.0305  0.0254  0.1477
    1W        W45088  10.816   7.935   2.631 -0.2533  0.1958  0.3152
    1W        W45089  21.150  21.416   0.026  0.2052  0.0155 -0.0832
    1W        W45090  10.288   0.192   1.695  0.2286 -0.0273  0.1754
    1W        W45091  23.461  19.677   0.158  0.0002 -0.1661  0.0619
    1W        W45092  16.722   6.091   3.081 -0.0109  0.0061  0.1023
    1W        W45093  10.547   7.665   3.057  0.0158 -0.0805 -0.1661
    1W        W45094   0.229   7.990   8.736 -0.0327 -0.0763  0.1143
    1W        W45095  12.284   4.944   1.672 -0.2488 -0.2100  0.0721
    1W        W45096  14.601  14.104   1.119 -0.2467  0.2538  0.2596
    1W        W45097  27.958   3.303   9.283  0.1759 -0.0753  0.0917
    1W        W45098  13.919   0.043   2.302 -0.4776  0.2787 -0.5926
    1W        W45099   0.528  21.993   0.227 -0.2497  0.0990  0.2289
    1W        W45100   4.596  12.855   7.317 -0.1390 -0.0029  0.3109
    1W        W45101   9.738  21.722   1.248  0.1651 -0.1154  0.0914
    1W        W45102   1.513  25.292   7.237  0.2084  0.1859 -0.1905
    1W        W45103  16.271   7.867   3.620  0.0814 -0.1116  0.0650
    1W        W45104  26.593   6.459   8.361 -0.0544 -0.1125  0.0622
    1W        W45105  23.691  21.049   8.672 -0.0283  0.0989 -0.0678
    1W        W45106   6.213  11.025   6.344 -0.1282 -0.1113  0.2488
    1W        W45107  16.010   4.845   4.149  0.0544 -0.2304  0.0031
    1W        W45108  28.480  11.186   0.811 -0.0341  0.0566  0.0911
    1W        W45109  26.505  26.038   1.588 -0.1587  0.0372 -0.0124
    1W        W45110  13.331   5.765   1.839  0.2691 -0.0021 -0.0583
    1W        W45111  24.211   0.515   7.235 -0.1574 -0.0833 -0.0717
    1W        W45112   4.797  26.292   0.529 -0.2676 -0.1149  0.1806
    1W        W45113   7.062   9.449   6.549 -0.0005 -0.1437 -0.3230
    1W        W45114   9.813   0.639   1.043 -0.1972 -0.0842 -0.3311
    1W        W45115   6.299  15.785   9.220  0.2208 -0.2489 -0.2521
    1W        W45116  11.487   9.241   3.081  0.1729 -0.2353  0.5320
    1W        W45117  27.444  18.226   7.797  0.0257 -0.1075  0.0326
    1W        W45118   5.701  27.921   7.006 -0.0563  0.2841 -0.1154
    1W        W45119   5.528  15.985   1.038  0.3271 -0.1311 -0.0729
    1W        W45120  23.209  21.272   8.892  0.1666  0.2842 -0.0171
    1W        W45121  13.057  21.489   7.530  0.0056  0.4122  0.1460
    1W        W45122  21.361  25.276   0.015  0.3488  0.1918 -0.4076
    1W        W45123   3.147  18.473   6.631 -0.1005 -0.0851  0.1929
    1W        W45124  23.803  18.630   6.562  0.3098  0.3833  0.0353
    1W        W45125  15.974  19.559   8.862  0.0295  0.0018 -0.0183
    1W        W45126  22.711  24.402   8.478 -0.3228 -0.2732 -0.1542
    1W        W45127  13.399   4.752   3.089  0.0121 -0.0027 -0.1478
    1W        W45128   4.654   7.938   8.399  0.0673 -0.0603 -0.3093
    1W        W45129   0.206  16.564   0.745 -0.1263 -0.1858 -0.0857
    1W        W45130  15.563  26.400   6.967  0.1318 -0.2395 -0.0944
    1W        W45131  14.157  18.889   6.017 -0.1306 -0.1736  0.2021
    1W        W45132  11.444  29.053   8.364  0.3021  0.0128  0.4826
    1W        W45133   6.771   2.751   9.275  0.2608 -0.0705  0.7890
    1W        W45134  22.966  21.082   0.173 -0.2684 -0.4493 -0.0197
    1W        W45135  18.968  20.396   8.213  0.0577  0.1459 -0.1575
    1W        W45136  28.076  14.836   1.685 -0.1383  0.0701 -0.1885
    1W        W45137  10.313  24.185   8.575 -0.0493  0.0661 -0.3244
    1W        W45138  28.030  24.561   1.106 -0.1430 -0.1382 -0.0530
    1W        W45139   1.701  10.378   7.574  0.0795  0.0729 -0.0651
    1W        W45140   1.343   6.687   1.975  0.1743  0.2568 -0.2170
    1W        W45141  17.107  26.912   8.439 -0.0450 -0.0944 -0.0428
    1W        W45142  18.186   3.196   1.137 -0.0602  0.0781  0.1394
    1W        W45143   3.808  11.936   2.408  0.0648 -0.1692  0.2048
    1W        W45144   5.324  10.694   1.236 -0.1040  0.4325  0.3321
    1W        W45145  23.017  24.559   1.579  0.0127  0.3546  0.2398
    1W        W45146  19.973  19.573   7.951  0.2304 -0.1771  0.0270
    1W        W45147  21.327   6.468   9.263 -0.0481 -0.1194  0.0224
    1W        W45148  29.031  28.254   2.343 -0.0179 -0.3992 -0.0431
    1W        W45149  20.517  17.342   6.662 -0.0606 -0.2121 -0.0222
    1W        W45150   4.165  25.817   2.090  0.3795  0.2140 -0.0884
    1W        W45151  10.686  10.003   7.329  0.1211  0.2266  0.1861
    1W        W45152  14.493  23.286   5.601 -0.0407 -0.0818  0.0087
    1W        W45153  26.116  21.561   0.376  0.0476 -0.3542  0.0111
    1W        W45154  15.780  20.707   0.513  0.2401 -0.0602  0.1388
    1W        W45155   9.295  22.756   6.123 -0.3080  0.0315 -0.4020
    1W        W45156  24.806  24.185   1.835  0.0578 -0.0194 -0.0705
    1W        W45157  29.510  13.815   7.648  0.4068  0.0453  0.0328
    1W        W45158  16.227  23.539   0.318 -0.1920 -0.2358 -0.0156
    1W        W45159   2.856  10.768   6.694  0.0032  0.1819 -0.0674
    1W        W45160   3.615  25.704   1.252  0.1275  0.2483  0.0061
    1W        W45161   8.503  24.176   5.592 -0.2968 -0.1630  0.1898
    1W        W45162  23.782  14.558   0.761  0.0354  0.1754 -0.1544
    1W        W45163   9.999   3.151   1.745  0.1476  0.1234  0.0504
    1W        W45164   2.691  21.703   8.952 -0.0548  0.1079 -0.0267
    1W        W45165   9.375   8.335   8.238  0.1038  0.1524  0.0344
    1W        W45166  10.433   0.238   7.632  0.1118 -0.0707 -0.2123
    1W        W45167  20.267   6.320   0.317 -0.0528  0.2879  0.0653
    1W        W45168  26.957  24.328   6.792 -0.1945  0.1795  0.1219
    1W        W45169   4.058  17.812   3.650 -0.5615  0.2866 -0.1155
    1W        W45170   2.248  12.011   2.257 -0.0290 -0.1495 -0.1010
    1W        W45171   8.621  28.844   7.680 -0.0775  0.0364  0.2520
    1W        W45172  16.291   5.450   2.463  0.0069  0.2023  0.1415
    1W        W45173  27.182   5.673   8.098  0.2804  0.4017  0.1121
    1W        W45174  10.800   9.461   0.947 -0.1861  0.0396 -0.4510
    1W        W45175   9.424   8.297   0.184  0.0177  0.2173 -0.0127
    1W        W45176  12.443   2.896   7.773 -0.2996  0.0000 -0.2032
    1W        W45177   4.301  17.020   1.763 -0.1003 -0.0676 -0.2731
    1W        W45178   7.409   7.317   8.414  0.0492  0.0668 -0.0297
    1W        W45179  19.206  18.069   0.367  0.2464  0.1296  0.1635
    1W        W45180  17.773  19.659   6.111  0.0252 -0.2338  0.0202
    1W        W45181  10.760   2.878   0.174  0.1928  0.0863 -0.0100
    1W        W45182   4.086  14.707   2.204  0.1044  0.1047 -0.1366
    1W        W45183   2.856   1.498   3.915  0.1083 -0.0037  0.2896
    1W        W45184   9.685  17.152   7.019  0.2813 -0.1033  0.0374
    1W        W45185  22.371  24.059   8.059 -0.0668 -0.1565  0.0409
    1W        W45186   7.870   8.563   0.706 -0.3729 -0.3221 -0.0967
    1W        W45187  27.100  19.402   0.589 -0.2764  0.4262 -0.1467
    1W        W45188  10.044  26.787   8.364 -0.2658  0.0314 -0.1171
    1W        W45189  13.148   6.055   9.316  0.1089  0.3904 -0.3109
    1W        W45190   7.696   7.166   0.055 -0.3652  0.1318  0.3249
    1W        W45191   2.602  27.363   6.828  0.2830 -0.0933  0.0678
    1W        W45192  13.769  12.003   0.287  0.1836  0.1805  0.0590
    1W        W45193   6.953  24.458   7.158  0.2984 -0.0908 -0.1556
    1W        W45194   0.935  10.335   6.345  0.0793  0.0151 -0.0416
    1W        W45195  10.784  10.428   0.219  0.0364  0.3567  0.1708
    1W        W45196  13.596  11.259   1.684  0.3612  0.1073  0.3023
    1W        W45197   8.124  21.216   9.063 -0.1781  0.1316 -0.0831
    1W        W45198  15.799  20.838   7.170  0.1111 -0.0050  0.2839
    1W        W45199  20.900   0.944   0.039  0.0238 -0.0833  0.0053
    1W        W45200   3.408  27.952   7.101  0.0491  0.1109  0.0077
    1W        W45201  23.185  10.858   9.154 -0.3535  0.0362 -0.2090
    1W        W45202   9.315  10.310   7.861  0.3429 -0.2214  0.3921
    1W        W45203  26.852  16.625   7.512 -0.1019 -0.0374  0.0032
    1W        W45204  15.753  16.187   6.870  0.1689 -0.0549  0.0022
    1W        W45205  13.609   1.607   8.469 -0.0797  0.1021 -0.0661
    1W        W45206  29.415  19.636   1.776  0.0029  0.1787 -0.0508
    1W        W45207  16.852  18.066   6.563  0.1369 -0.3998  0.2774
    1W        W45208  27.102  26.857   8.311  0.1170  0.1044 -0.0824
    1W        W45209   3.618  19.209   6.980  0.1928  0.0857  0.2517
    1W        W45210  24.295  24.184   2.145  0.0416  0.1245 -0.2625
    1W        W45211   6.549  16.723   6.768 -0.2305  0.2502 -0.2284
    1W        W45212  27.869   0.824   8.813  0.1694 -0.0725  0.1144
    1W        W45213  12.104  22.383   0.940 -0.2430  0.4034  0.2183
    1W        W45214   6.492  21.537   2.354 -0.0165 -0.0567  0.4149
    1W        W45215  19.028  10.965   7.693  0.0309 -0.0245 -0.1347
    1W        W45216   2.894  16.221   8.110  0.0473 -0.0755 -0.0164
    1W        W45217  29.383   3.673   9.018  0.0996 -0.0098  0.0446
    1W        W45218   0.595  12.854   7.905 -0.2824  0.1244  0.0652
    1W        W45219   2.022  24.325   8.934  0.1193 -0.0205  0.2589
    1W        W45220  15.281   8.325   8.801  0.0487  0.0443  0.1587
    1W        W45221   3.362  22.581   9.306 -0.0217  0.2622 -0.1110
    1W        W45222  24.516  22.074   1.870  0.1649 -0.0791 -0.1561
    1W        W45223  15.057  28.998   8.292 -0.1191 -0.2711  0.3343
    1W        W45224   8.626  24.886   6.307 -0.1476 -0.0108 -0.2421
    1W        W45225  13.938  17.697   1.410 -0.0926 -0.0581 -0.0517
    1W        W45226  17.873  17.747   7.981 -0.0054 -0.0665 -0.0744
    1W        W45227   0.582   9.041   6.340  0.1200  0.0709 -0.0806
    1W        W45228  16.568   0.726   7.569 -0.2098 -0.2663  0.3444
    1W        W45229   0.182  26.399   6.402 -0.2413 -0.1374 -0.0917
    1W        W45230  25.399  18.880   6.876  0.0932 -0.0915 -0.0845
    1W        W45231   4.752  24.847   9.095  0.0530  0.0358 -0.0152
    1W        W45232  15.809  16.968   0.054 -0.1154 -0.1530 -0.2341
    1W        W45233   0.158  11.013   2.744  0.1579  0.2789  0.3696
    1W        W45234   1.251  18.179   6.842 -0.0402 -0.2565  0.0343
    1W        W45235  15.123   1.628   4.477 -0.2289  0.0184  0.1418
    1W        W45236  27.622  13.704   2.760  0.0581  0.3551  0.1018
    1W        W45237  22.404  11.757   7.776 -0.0423 -0.0125 -0.0275
    1W        W45238   6.732  10.606   0.238  0.0485  0.0856  0.2572
    1W        W45239   6.331   8.190   0.296  0.3023  0.0761 -0.3937
    1W        W45240  12.426  11.132   8.453  0.2338 -0.1444 -0.2821
    1W        W45241  22.388   4.986   3.115 -0.1237 -0.0109  0.1478
    1W        W45242   0.018  12.699   9.521  0.0742 -0.1638  0.0720
    1W        W45243  24.500  14.565   1.231  0.1489 -0.0033 -0.4590
    1W        W45244   1.377  16.738   1.680  0.1279  0.1564  0.0047
    1W        W45245   5.618  10.539   0.832  0.0595 -0.0396  0.2729
    1W        W45246  23.662  16.576   7.587 -0.0118  0.1167  0.0061
    1W        W45247   9.948   5.037   0.285  0.0218  0.0728 -0.0324
    1W        W45248   2.377  29.682   7.473  0.0019 -0.0054 -0.1538
    1W        W45249  25.162   1.353   9.437  0.1109 -0.1436  0.0831
    1W        W45250  12.494  18.953   8.500  0.1996 -0.3183 -0.3689
    1W        W45251   3.585   9.197   8.838  0.2450  0.0614  0.0191
    1W        W45252  15.889  13.200   8.192  0.2560  0.1644 -0.1271
    1W        W45253  25.146   8.767   0.399 -0.3649  0.1632  0.1685
    1W        W45254   3.175   7.077   7.515  0.1453 -0.0983 -0.2941
    1W        W45255  26.155   9.833   3.117  0.0561  0.0828  0.0153
    1W        W45256  29.008  14.292   7.331 -0.2008  0.1645  0.1110
    1W        W45257  23.883   4.198   8.240 -0.3292 -0.1690  0.0196
    1W        W45258  14.471  27.711   0.584 -0.0985  0.3117  0.1802
    1W        W45259  25.852   8.926   9.364  0.0843  0.0749 -0.0621
    1W        W45260  23.832  24.976   2.255 -0.0582 -0.4037 -0.2148
    1W        W45261   3.131   7.410   2.395  0.3101  0.1187 -0.0597
    1W        W45262   8.696  22.080   1.782 -0.0454 -0.2118 -0.1836
    1W        W45263  26.375  19.063   0.234 -0.1476 -0.0280  0.0243
    1W        W45264  14.480  11.298   8.122 -0.1882 -0.0455  0.1497
    1W        W45265  15.389  29.216   7.400  0.1422  0.0168  0.1476
    1W        W45266   3.717  10.412   0.945 -0.0976 -0.0029 -0.2692
    1W        W45267  17.303  24.902   7.426  0.1419  0.2042  0.0790
    1W        W45268  23.657  21.898   8.364  0.1703  0.0162 -0.0939
    1W        W45269   7.863  16.824   7.212  0.3427 -0.0049  0.2468
    1W        W45270   4.247  17.222   7.272  0.4733  0.3078  0.4257
    1W        W45271  14.276  27.327   8.640  0.0372  0.2645  0.1568
    1W        W45272  18.424   3.771   0.417 -0.1865 -0.0332 -0.0551
    1W        W45273   0.868   5.876   8.523 -0.1637 -0.1622  0.0502
    1W        W45274  20.167  17.678   9.390  0.1948  0.2669 -0.0309
    1W        W45275  22.160  23.996   6.894  0.1072 -0.1399 -0.0799
    1W        W45276  18.686  29.753   0.554 -0.1209 -0.1309 -0.0507
    1W        W45277  10.946   1.425   3.119 -0.0241  0.0860 -0.0420
    1W        W45278  28.364   7.257   9.144 -0.0397  0.1726 -0.1663
    1W        W45279   3.716  28.392   7.223 -0.1924  0.1036  0.1057
    1W        W45280  14.625  14.627   7.009 -0.0671  0.1769  0.0743
    1W        W45281  21.453   0.067   8.866 -0.0533 -0.0486  0.0871
    1W        W45282   3.694  11.253   0.188 -0.0331 -0.2516  0.3046
    1W        W45283  10.073   3.689   8.966 -0.3790 -0.0271  0.1020
    1W        W45284  18.127   3.625   8.626 -0.0759 -0.0801 -0.3662
    1W        W45285   9.736  10.794   2.544 -0.0036  0.1958  0.3263
    1W        W45286   3.206  28.391   7.247  0.0752 -0.3663 -0.2769
    1W        W45287   3.345   4.370   7.574 -0.0762 -0.1313  0.2522
    1W        W45288  14.288   7.726   3.627  0.2756 -0.1391 -0.0004
    1W        W45289   3.185  25.572   0.005  0.1684  0.0735 -0.1116
    1W        W45290  20.170   6.710   9.430 -0.2423 -0.0871 -0.2928
    1W        W45291  11.126  17.614   7.597  0.1212 -0.1119  0.0827
    1W        W45292   6.662   3.996   8.409 -0.2883  0.1504  0.1283
    1W        W45293  22.958   7.775   2.312 -0.1165  0.0887 -0.2232
    1W        W45294  23.619  21.928   7.300 -0.1500  0.0930 -0.1643
    1W        W45295  25.802   4.864   2.236 -0.2475  0.3392 -0.1976
    1W        W45296  26.577  18.978   5.755 -0.1073 -0.0950 -0.0688
    1W        W45297   2.290   2.545   0.945 -0.4280  0.2486  0.0085
    1W        W45298  26.837  17.733   6.610 -0.0969 -0.4100 -0.1629
    1W        W45299  25.248   4.945   0.371 -0.1719 -0.3744 -0.0978
    1W        W45300   0.661  15.552   7.112  0.0621 -0.1170  0.1391
    1W        W45301   7.507  18.802   5.811 -0.0045  0.0856  0.0138
    1W        W45302   2.087  13.810   2.252 -0.0479  0.0151  0.1610
    1W        W45303   3.092  29.355   0.507  0.2852 -0.1746  0.1055
    1W        W45304   0.444   7.424   8.000 -0.0285 -0.1498  0.1493
    1W        W45305  10.576  20.150   5.778 -0.2864  0.0910 -0.0703
    1W        W45306   1.891   3.106   7.795  0.2536 -0.1032 -0.0344
    1W        W45307  25.096  11.216   2.869 -0.2229  0.1225  0.2314
    1W        W45308  20.705  19.656   9.006  0.2139 -0.1253 -0.1652
    1W        W45309   0.167  17.216   2.115 -0.3521  0.3648  0.0382
    1W        W45310  23.562   7.097   9.503 -0.1424  0.3196 -0.2590
    1W        W45311   3.374  17.178   8.300  0.0735  0.0704 -0.0065
    1W        W45312  28.337  21.312   7.247  0.4387 -0.1230  0.1759
    1W        W45313   7.131  28.473   9.080  0.1039  0.1553  0.1223
    1W        W45314  20.519  18.310   0.795 -0.2664 -0.1944 -0.3360
    1W        W45315  20.869  17.340   0.540 -0.0044 -0.2212  0.1102
    1W        W45316  21.518   5.249   8.921 -0.3234 -0.2778  0.1950
    1W        W45317   8.272  10.354   0.462  0.0751  0.0753  0.0860
    1W        W45318  25.169   4.333   2.317  0.1168  0.1666  0.0379
    1W        W45319  19.056   0.929   1.987 -0.1898 -0.4229 -0.0088
    1W        W45320  13.012  12.255   7.831 -0.1554  0.0466 -0.0187
    1W        W45321  23.872   6.557   0.622 -0.1891 -0.3762 -0.0516
    1W        W45322   4.002   6.530   0.139  0.1522 -0.0461  0.0012
    1W        W45323   0.988  18.844   2.675  0.0605 -0.0060  0.0544
    1W        W45324  28.793  27.974   1.257  0.2995  0.0341  0.3104
    1W        W45325  17.059  27.213   7.621 -0.0125  0.3048 -0.0194
    1W        W45326   0.148  14.677   2.290 -0.1447 -0.0610 -0.1590
    1W        W45327  12.715  25.874   6.679 -0.2493  0.3372  0.0579
    1W        W45328  12.870  26.239   0.086  0.3413  0.0571  0.1242
    1W        W45329  27.762   3.505   7.406  0.0634  0.0532  0.3393
    1W        W45330   5.905   1.006   1.389  0.2014 -0.0313  0.0652
    1W        W45331  27.811  22.985   8.220 -0.3050 -0.0901 -0.1936
    1W        W45332  22.657   8.137   2.478  0.0304  0.1456  0.2791
    1W        W45333   3.200  13.107   6.076 -0.1607  0.0140  0.1078
    1W        W45334  13.181  20.404   8.500  0.3145  0.0480  0.0500
    1W        W45335  24.162  11.202   2.488  0.3652  0.4772  0.2732
    1W        W45336  12.790  27.989   1.919  0.2065 -0.1778  0.0863
    1W        W45337  16.583  18.104   8.939 -0.2966 -0.0715  0.1032
    1W        W45338  12.323   5.826   1.505 -0.0387  0.1110 -0.1479
    1W        W45339   5.208  27.345   1.871 -0.1926 -0.3359  0.1795
    1W        W45340   0.144   2.734   2.385  0.3118  0.1407  0.0393
    1W        W45341   8.480  17.525   2.500  0.2431  0.1257 -0.1121
    1W        W45342  10.420   1.998   8.772  0.2997 -0.0112 -0.0246
    1W        W45343  11.831   3.796   4.168  0.1486 -0.2510  0.3382
    1W        W45344  27.367  19.855   0.313 -0.0427 -0.4001 -0.2347
    1W        W45345  21.240  15.493   0.322  0.1837 -0.3881 -0.1399
    1W        W45346  21.989  19.220   0.723 -0.0583  0.4259  0.0964
    1W        W45347  13.793  23.210   9.494 -0.1220  0.0381 -0.2506
    1W        W45348  24.549   5.083   2.057  0.0690  0.3699  0.0789
    1W        W45349   0.694   3.816   3.030 -0.3297  0.1280  0.1881
    1W        W45350  20.452  19.344   7.361  0.0777 -0.2485 -0.3034
    1W        W45351  26.923  16.264   1.518 -0.0556 -0.0216 -0.3137
    1W        W45352  25.176  29.189   2.473  0.0148  0.0808  0.2228
    1W        W45353   5.918   9.993   8.715  0.0056  0.2132  0.2798
    1W        W45354  14.098  13.869   1.339 -0.1429 -0.0022  0.0454
    1W        W45355  24.793   3.860   3.597 -0.0037 -0.2049 -0.0692
    1W        W45356  14.305  13.405   7.606 -0.1419 -0.0130  0.0079
    1W        W45357  14.816   8.072   2.706  0.0397  0.0945  0.1326
    1W        W45358  19.670   2.189   7.897  0.0955 -0.1080  0.1014
    1W        W45359   7.747  13.551   6.824 -0.2222 -0.3180 -0.0360
    1W        W45360  17.586  13.639   0.187 -0.0473 -0.3202  0.4450
    1W        W45361   9.157   5.432   8.177  0.3034  0.3210  0.0209
    1W        W45362  27.212  29.551   0.133  0.0622  0.1914 -0.1200
    1W        W45363  21.216  11.347   9.289  0.0086  0.1017  0.3264
    1W        W45364  26.340  16.309   7.197 -0.0103 -0.3573 -0.3000
    1W        W45365   4.845  14.273   0.183  0.0296  0.0635  0.1053
    1W        W45366   0.532   7.022   0.834  0.0782  0.1487 -0.1924
    1W        W45367   0.529  23.323   9.121 -0.1048  0.1963 -0.2748
    1W        W45368   9.895  27.189   8.608  0.1262 -0.4066 -0.2895
    1W        W45369  26.301  15.024   8.395 -0.0463 -0.0996  0.3135
    1W        W45370  23.689  29.570   2.594 -0.0641  0.0445  0.0585
    1W        W45371  26.783  11.889   7.409 -0.0701  0.1503  0.0381
    1W        W45372  28.486  27.830   6.523  0.4009  0.2609  0.1667
    1W        W45373  19.393  10.735   8.537 -0.0334  0.0190  0.0235
    1W        W45374  19.970  24.014   1.643  0.0856 -0.2592 -0.2251
    1W        W45375  19.381  11.030   8.085 -0.0706 -0.0521 -0.1966
    1W        W45376  25.129  15.976   7.926 -0.0793  0.2152  0.1286
    1W        W45377  22.181   6.938   2.683  0.0031  0.1439 -0.0922
    1W        W45378  27.951  26.335   6.701 -0.0303  0.2402 -0.2852
    1W        W45379  12.328  29.439   2.130  0.0302 -0.5587 -0.2022
    1W        W45380  18.877  13.665   1.771 -0.0774  0.0592 -0.0045
    1W        W45381  16.503  10.835   8.540 -0.0506  0.0275 -0.3164
    1W        W45382   2.396  15.071   1.299  0.0595 -0.2494  0.1188
    1W        W45383  13.377  24.196   9.334  0.4013 -0.0084  0.1225
    1W        W45384  17.038   9.354   7.957 -0.0975 -0.0619  0.1768
    1W        W45385   9.783  14.360   1.545 -0.2198  0.2976  0.0378
    1W        W45386   7.014  24.915   1.046 -0.0342  0.2687 -0.0172
    1W        W45387  23.452  26.513   8.185  0.0019  0.0617 -0.1350
    1W        W45388   6.128  28.565   8.701 -0.0388 -0.0585  0.1636
    1W        W45389  17.068  28.842   7.466 -0.0460 -0.0445  0.1367
    1W        W45390  29.114   2.441   8.963 -0.2252  0.0777 -0.2866
    1W        W45391   2.746  11.797   7.998  0.1935 -0.1886  0.0407
    1W        W45392   2.031  16.473   7.851  0.1594  0.0926 -0.1658
    1W        W45393   4.548  23.968   8.837 -0.1782 -0.0265 -0.0673
    1W        W45394  13.915  18.923   6.579  0.1817  0.4556 -0.1113
    1W        W45395  26.485   9.890   7.799  0.0975 -0.0445  0.0200
    1W        W45396   2.790  16.955   1.491  0.1386  0.0370 -0.2951
    1W        W45397   1.958  11.908   7.779  0.1094  0.0810 -0.0190
    1W        W45398  25.561  22.147   2.292  0.1142 -0.2477 -0.2744
    1W        W45399  26.003  19.374   6.533 -0.3968 -0.0836 -0.4644
    1W        W45400  12.222   3.418   2.612  0.1801 -0.0813  0.0125
    1W        W45401  16.409   4.010   0.204 -0.0988  0.0780 -0.0915
    1W        W45402  19.695  13.865   2.955 -0.1016  0.0700 -0.0721
    1W        W45403   3.554  18.839   8.708  0.3524 -0.4359 -0.0927
    1W        W45404   8.563   5.302   2.942  0.0052 -0.0368 -0.0027
    1W        W45405  13.308  10.457   2.007 -0.1324 -0.1667 -0.0276
    1W        W45406  29.030  20.817   8.026  0.1219 -0.0420  0.1309
    1W        W45407   1.537  16.967   0.153  0.0918 -0.4763  0.3786
    1W        W45408  17.659  22.571   6.765 -0.0368 -0.0843 -0.2357
    1W        W45409  19.924   7.372   2.746 -0.2101  0.3111 -0.3675
    1W        W45410   8.683  18.651   1.430 -0.0684  0.0262  0.0641
    1W        W45411  15.684   1.282   8.276  0.1821 -0.0198  0.1240
    1W        W45412  16.535  11.772   2.352 -0.1084 -0.1905  0.0465
    1W        W45413  26.158  18.105   7.173 -0.0821 -0.1378 -0.0337
    1W        W45414   9.074  26.977   1.595 -0.0016 -0.1551 -0.0906
    1W        W45415  21.498  14.564   8.251  0.1477 -0.0209  0.2396
    1W        W45416  14.531   5.175   9.176  0.0871 -0.1153 -0.2603
    1W        W45417  29.054  26.593   7.651  0.2009  0.2605 -0.0418
    1W        W45418   5.569   2.490   8.982 -0.1211  0.0554  0.3009
    1W        W45419   8.413  17.276   1.292 -0.0754  0.1077  0.0198
    1W        W45420   5.261  29.498   0.420  0.2291 -0.3058 -0.2319
    1W        W45421  14.196   9.161   3.331 -0.0091 -0.0376 -0.1390
    1W        W45422   5.059  25.998   1.587  0.0416 -0.0922  0.2081
    1W        W45423   0.395  24.641   1.687  0.0849 -0.0657 -0.3507
    1W        W45424  24.548  18.511   7.076  0.0494  0.0310 -0.2756
    1W        W45425   2.664  10.329   2.476  0.0155  0.1766  0.0180
    1W        W45426  22.523   1.014   0.682  0.3505  0.1888  0.0887
    1W        W45427  21.262  19.455   7.229  0.0641 -0.1449 -0.3109
    1W        W45428  22.548   2.808   7.936 -0.4022  0.2011 -0.4849
    1W        W45429   8.867   9.638   2.218  0.2739  0.2431 -0.0103
    1W        W45430  28.186  25.791   6.855  0.3508 -0.1922  0.1947
    1W        W45431  26.157  12.363   7.134 -0.3250 -0.0572  0.1495
    1W        W45432  18.188  11.190   8.429  0.1913 -0.1338  0.2456
    1W        W45433  19.892  15.031   6.297 -0.0708  0.2155 -0.1840
    1W        W45434  23.196  19.208   0.429 -0.2011 -0.2383 -0.0148
    1W        W45435  21.313  25.872   1.620 -0.1701 -0.0341 -0.1496
    1W        W45436   5.049  10.572   0.038 -0.2326  0.0111 -0.0827
    1W        W45437  23.078   1.836   8.326  0.0610 -0.3098 -0.2051
    1W        W45438  24.465   4.177   3.368  0.0766  0.0828  0.5320
    1W        W45439  18.201  24.811   7.167 -0.0003 -0.0445 -0.0627
    1W        W45440  28.935   0.821   7.027 -0.3190 -0.0648 -0.1335
    1W        W45441  17.569   1.733   7.716 -0.3526 -0.0119  0.0642
    1W        W45442  25.323   1.091   1.939  0.2734  0.4099  0.3492
    1W        W45443  16.955  17.364   8.349 -0.0887 -0.3090 -0.1996
    1W        W45444  10.195   6.606   6.741 -0.3089 -0.1402  0.1063
    1W        W45445  14.131  10.353   6.674 -0.3053 -0.5915  0.1172
    1W        W45446  22.826  12.765   2.038  0.0005  0.0029 -0.3445
    1W        W45447  14.159   5.984   2.151  0.1427 -0.0462 -0.1829
    1W        W45448  17.863   2.310   1.587  0.2319 -0.0336  0.2969
    1W        W45449   3.200  16.290   6.818 -0.3207 -0.2469  0.2067
    1W        W45450  28.526   0.236   7.621  0.3369  0.2944  0.0160
    1W        W45451   4.343  10.390   2.573 -0.1576 -0.0460 -0.1544
    1W        W45452  10.644  23.540   1.288 -0.1359  0.3693 -0.2386
    1W        W45453   2.035   2.120   1.020  0.4333 -0.1703  0.0642
    1W        W45454  29.300  23.622   7.000  0.2664 -0.2849  0.2015
    1W        W45455   8.304  28.288   1.023  0.1082  0.2263 -0.1530
    1W        W45456  18.017  10.100   0.422 -0.0992  0.5556 -0.1287
    1W        W45457  13.503  15.008   0.255 -0.0472 -0.0841  0.1859
    1W        W45458  28.706  24.089   0.089 -0.1898  0.1350 -0.0784
    1W        W45459  16.953  28.166   7.239 -0.1630 -0.2754 -0.3009
    1W        W45460  17.080   1.254   0.046 -0.0751  0.1480  0.1863
    1W        W45461  18.118   8.611   1.383 -0.0812  0.1150 -0.2548
    1W        W45462   4.960  23.556   6.334  0.0882  0.1498  0.4973
    1W        W45463  10.951  11.154   1.918 -0.1765  0.1519 -0.1850
    1W        W45464  24.094   5.509   8.836 -0.2566 -0.1863 -0.1785
    1W        W45465   7.610   2.551   8.610  0.2787 -0.0393  0.2028
    1W        W45466  26.122  26.586   6.728 -0.2394 -0.0160  0.2897
    1W        W45467   6.138  28.525   9.289  0.3017 -0.1423 -0.3068
    1W        W45468  14.881  15.014   8.760 -0.0446  0.0573 -0.0853
    1W        W45469  14.946  16.151   1.329 -0.0245 -0.2186 -0.1672
    1W        W45470  11.881  17.872   1.827 -0.2612 -0.1513 -0.0131
    1W        W45471  14.780  22.574   1.465 -0.2155 -0.0303  0.0463
    1W        W45472  26.034  25.531   8.630  0.0594  0.3284 -0.0006
    1W        W45473  21.288  22.227   2.092  0.0068  0.0486 -0.1526
    1W        W45474   0.144   9.238   6.574  0.4363 -0.1143  0.1338
    1W        W45475   9.242  11.187   0.916  0.0486 -0.1386 -0.0225
    1W        W45476  10.830   8.384   8.083  0.1942 -0.1498 -0.1011
    1W        W45477  29.449  19.169   7.838 -0.1864  0.2714 -0.0785
    1W        W45478  12.384   6.156   2.914 -0.0867 -0.0195 -0.2136
    1W        W45479   3.908   2.766   8.189  0.0727  0.2031  0.1399
    1W        W45480  11.849   1.033   7.743  0.0982  0.1343  0.0551
    1W        W45481  25.156   0.758   0.609  0.0693  0.2354  0.0174
    1W        W45482  25.790  28.956   9.235 -0.1096  0.0228  0.3214
    1W        W45483   6.001  21.864   7.137  0.1143 -0.1015  0.1190
    1W        W45484  22.264  14.848   1.928 -0.3165  0.0968  0.2956
    1W        W45485   0.179  27.283   8.485  0.1996  0.0684  0.2442
    1W        W45486   2.396   0.750   1.152 -0.0956  0.2087 -0.0749
    1W        W45487   1.947   4.020   1.563  0.1845 -0.0810  0.0924
    1W        W45488   3.948  14.576   0.064 -0.0291  0.1012 -0.1231
    1W        W45489  12.573   1.763   2.988 -0.2648  0.5681 -0.2065
    1W        W45490  28.372  22.921   2.178 -0.1893 -0.0069  0.0958
    1W        W45491  20.912  14.285   0.261  0.1303 -0.0257 -0.3873
    1W        W45492  10.784   8.495   9.013  0.0191 -0.1504  0.2746
    1W        W45493   1.536  12.391   0.231 -0.0739 -0.0182 -0.1193
    1W        W45494  29.647  25.223   9.069  0.0073 -0.0009 -0.0216
    1W        W45495  23.486   6.033   8.227  0.1533  0.0859 -0.3535
    1W        W45496  10.563   2.014   7.980  0.2380 -0.1108  0.3811
    1W        W45497   6.112  13.161   8.000  0.1991 -0.1613  0.2753
    1W        W45498  27.720  11.126   7.470  0.1354  0.0561 -0.1591
    1W        W45499  15.332   1.869   7.308  0.1576  0.1781 -0.2247
    1W        W45500   6.568  14.529   5.772  0.1421 -0.1032 -0.1740
    1W        W45501  14.043  27.039   5.639 -0.2536 -0.1086 -0.0577
    1W        W45502  10.224   0.997   1.146 -0.2315 -0.2392 -0.1651
    1W        W45503  23.008   4.450   2.027  0.2234 -0.3767 -0.0632
    1W        W45504   9.939   4.660   9.489  0.0531 -0.0264  0.2329
    1W        W45505  21.352  14.125   0.013  0.0897 -0.0924  0.0929
    1W        W45506  11.416   8.021   1.166  0.0500  0.0346  0.1774
    1W        W45507   2.144  29.851   7.071  0.2135 -0.0925 -0.0314
    1W        W45508  11.690  17.952   0.301  0.0974  0.1326 -0.0039
    1W        W45509  20.485  25.051   7.947  0.1832 -0.0939  0.1798
    1W        W45510  14.477  13.459   8.576  0.3014  0.2347  0.1263
    1W        W45511  13.075   6.183   8.506 -0.0299  0.0884  0.0030
    1W        W45512  26.785   3.319   1.018  0.1731 -0.1943  0.0121
    1W        W45513  21.868  24.342   0.783  0.0534  0.1707 -0.3996
    1W        W45514  17.500   7.307   8.615 -0.1021  0.0307 -0.1861
    1W        W45515   6.615  28.230   8.729  0.2653 -0.2556 -0.0481
    1W        W45516   7.589  18.756   6.532  0.1948 -0.0331 -0.1828
    1W        W45517  12.739  17.125   0.609 -0.0336  0.0782  0.0645
    1W        W45518  22.873  27.669   1.283  0.1494  0.0702 -0.0776
    1W        W45519   7.213   7.698   7.457 -0.1812  0.1900 -0.0142
    1W        W45520  18.995   5.430   8.576  0.2045  0.2696  0.3172
    1W        W45521   5.356  24.213   7.086  0.0673  0.0039 -0.2464
    1W        W45522   2.580  20.679   6.936 -0.1463 -0.3132  0.2386
    1W        W45523   0.379   7.040   7.272  0.0936  0.0871  0.1826
    1W        W45524  14.947  10.285   1.673  0.4924 -0.0540  0.0497
    1W        W45525   2.058   3.662   2.512  0.0643  0.0851 -0.0154
    1W        W45526  13.734  15.986   0.341  0.1820  0.0236  0.0870
    1W        W45527  15.048  11.932   7.857 -0.0311 -0.1670 -0.0457
    1W        W45528  14.618  15.703   7.806  0.0537 -0.1940 -0.1686
    1W        W45529  19.326  18.234   8.752  0.2559  0.1589  0.1913
    1W        W45530   2.329  11.047   0.698  0.1714  0.4353 -0.2366
    1W        W45531   4.029  29.778   6.547 -0.1412 -0.1787  0.0172
    1W        W45532   3.279  16.800   1.765 -0.0131  0.1746  0.1590
    1W        W45533  15.667  24.067   9.189 -0.3619  0.1360 -0.0981
    1W        W45534  23.560  13.404   0.081 -0.2525 -0.1294 -0.4374
    1W        W45535  21.557  15.815   7.058  0.0260 -0.1063 -0.0785
    1W        W45536  20.656  26.109   8.125  0.1683 -0.0020  0.1620
    1W        W45537   1.916  28.910   7.156  0.0465  0.0535  0.0501
    1W        W45538  18.756  27.125   7.011  0.0583 -0.1239  0.1033
    1W        W45539  20.153   4.764   0.605  0.4295 -0.1372  0.1082
    1W        W45540  11.394  15.031   8.865 -0.3017 -0.0650 -0.3122
    1W        W45541   9.685  25.754   8.065 -0.1283  0.0563 -0.1332
    1W        W45542   5.370  28.294   0.686  0.0994  0.0751 -0.2381
    1W        W45543   3.913   5.936   0.594  0.0521 -0.1310 -0.3433
    1W        W45544  13.208  16.590   6.698 -0.0126  0.1406  0.0416
    1W        W45545   1.033  16.433   0.750 -0.2146  0.0209  0.0363
    1W        W45546  25.186  18.328   0.687  0.0869  0.1381  0.2117
    1W        W45547  15.297  13.123   1.358  0.0768  0.3534 -0.2022
    1W        W45548  14.251  16.938   7.310  0.1430 -0.3548  0.0252
    1W        W45549  20.494  22.963   2.401 -0.2525 -0.0284  0.0094
    1W        W45550  21.491  16.242   2.088  0.2850  0.2157 -0.1199
    1W        W45551  23.863  28.191   0.216 -0.1555 -0.1311  0.1964
    1W        W45552  14.453  26.302   6.763  0.1100  0.1510 -0.0050
    1W        W45553  10.931  25.210   8.728 -0.0456  0.1570 -0.0433
    1W        W45554  10.954   7.694   1.188  0.0470 -0.0791  0.2250
    1W        W45555  11.195  12.691   0.674  0.2455 -0.0336  0.0853
    1W        W45556  14.273  17.498   1.095  0.0131 -0.1559  0.1336
    1W        W45557   5.202  12.186   1.059  0.1430 -0.0050 -0.0470
    1W        W45558   3.568  17.402   8.815  0.0908  0.0787  0.2502
    1W        W45559  27.670  22.795   7.752 -0.1410 -0.1514  0.2144
    1W        W45560   7.765  17.489   7.709  0.2813  0.3074  0.0197
    1W        W45561  11.328   3.759   0.477 -0.1922 -0.0217 -0.2832
    1W        W45562  12.644  27.505   6.648 -0.0003  0.1745  0.1182
    1W        W45563  19.184  26.323   0.678  0.2127 -0.1745 -0.2777
    1W        W45564  18.250   5.419   1.100 -0.0180 -0.3322  0.4987
    1W        W45565   9.760  12.043   0.167 -0.1946 -0.0372 -0.1581
    1W        W45566  10.978   8.255   0.328  0.0112 -0.1911 -0.2234
    1W        W45567   7.904  12.728   6.954 -0.3470  0.1265  0.0633
    1W        W45568  13.877  25.330   8.574  0.2400 -0.1955 -0.4093
    1W        W45569  26.835  27.285   8.195  0.0854 -0.1952 -0.1826
    1W        W45570  27.090   1.295   1.614  0.3146 -0.2864 -0.0028
    1W        W45571  11.682   7.604   0.616  0.2349  0.0602 -0.0466
    1W        W45572   6.113   6.392   0.965  0.1010  0.1605 -0.0013
    1W        W45573   9.899  20.014   9.396 -0.2632  0.1247 -0.3114
    1W        W45574   8.924  22.817   7.522  0.2549  0.1939  0.2337
    1W        W45575  25.505  14.310   9.005  0.0440 -0.0155  0.0167
    1W        W45576  27.604   9.340   0.974 -0.0767  0.2487 -0.1083
    1W        W45577  13.867  15.396   0.361 -0.0882 -0.4676  0.1156
    1W        W45578  24.754   6.221   8.412  0.0668 -0.1366  0.0995
    1W        W45579   0.168   3.701   7.253  0.0198  0.2641 -0.0006
    1W        W45580  17.322  29.074   9.093  0.1053  0.1741 -0.1172
    1W        W45581  16.536  24.780   8.588 -0.1236 -0.0373 -0.2252
    1W        W45582   5.293   6.201   0.964 -0.1498  0.2084  0.0907
    1W        W45583  17.158  15.206   6.786  0.3324  0.1831  0.0271
    1W        W45584  29.112  16.217   6.360 -0.1252  0.3615  0.1271
    1W        W45585  26.369  17.231   1.732  0.0556  0.1745 -0.1676
    1W        W45586  10.134  13.595   6.735 -0.0355  0.0580 -0.1141
    1W        W45587  22.095  24.047   7.648  0.1763  0.0641  0.2764
    1W        W45588  25.588   7.593   0.639 -0.3233  0.0244  0.2035
    1W        W45589  11.186   4.794   3.588  0.2213  0.1423  0.0150
    1W        W45590  15.850  16.690   6.811  0.0921 -0.0099  0.0053
    1W        W45591  21.897  24.060   8.970 -0.1690  0.1509 -0.0171
    1W        W45592  29.784   9.420   5.960  0.2205  0.1313 -0.2496
    1W        W45593  21.221   0.255   1.381 -0.2114 -0.0683  0.2442
    1W        W45594  24.503  25.077   7.339  0.2633 -0.3599  0.0403
    1W        W45595   1.497  16.404   7.775 -0.0077 -0.1030  0.2424
    1W        W45596  24.697   1.401   7.449 -0.0223 -0.4905 -0.1356
    1W        W45597  13.890  17.212   7.777 -0.3163  0.2396 -0.2515
    1W        W45598   5.282   4.272   9.012  0.2533 -0.0213 -0.1914
    1W        W45599   9.012   8.157   8.530 -0.1615  0.2195  0.1860
    1W        W45600   1.132   2.280   2.358 -0.1372  0.0453 -0.3025
    1W        W45601  17.458  20.963   6.530 -0.0571 -0.0859  0.0409
    1W        W45602  21.238   1.205   0.350  0.1849  0.1296  0.2475
    1W        W45603   8.193   1.045   7.442  0.2991 -0.1245  0.1774
    1W        W45604  17.945  10.088   1.484 -0.0646 -0.0781 -0.0093
    1W        W45605  14.907  22.285   0.657 -0.0136  0.0267  0.1143
    1W        W45606  27.394   4.068   8.228 -0.1286 -0.1624  0.0513
    1W        W45607   5.899  19.490   6.272  0.3009 -0.2159 -0.0768
    1W        W45608   5.163  21.565   8.935 -0.4032 -0.1750 -0.0114
    1W        W45609  29.333  26.542   6.722  0.0326  0.2540  0.0928
    1W        W45610   2.186  18.683   0.357 -0.0119 -0.1057  0.1445
    1W        W45611   7.817   6.289   2.940  0.0301  0.0638 -0.1430
    1W        W45612   6.650  13.083   8.054  0.0381  0.2114 -0.2400
    1W        W45613   7.116  28.860   8.671  0.0984  0.1745  0.0609
    1W        W45614  20.657  23.120   2.883  0.3479 -0.0665 -0.4420
    1W        W45615   3.130  22.878   7.461  0.0158 -0.1026  0.2262
    1W        W45616  25.272  28.779   7.078  0.0522  0.1413 -0.1227
    1W        W45617  20.641   4.983   2.847 -0.0756 -0.3234 -0.0266
    1W        W45618   6.705  14.294   2.389 -0.3739  0.1880  0.0482
    1W        W45619   1.801   7.614   6.104  0.1939  0.0382 -0.1104
    1W        W45620  22.252  21.802   1.982  0.2190  0.2747  0.0133
    1W        W45621   8.186   8.724   7.340  0.1037  0.2368  0.2288
    1W        W45622  15.161  28.389   1.680  0.1881  0.0138  0.1173
    1W        W45623  17.615  14.053   7.310  0.1828  0.0427  0.0222
    1W        W45624  11.012  22.042   7.778 -0.0065  0.1797 -0.1132
    1W        W45625  22.997   6.819   0.394 -0.0597  0.0193 -0.1586
    1W        W45626  27.724  22.305   6.987  0.1774  0.2854  0.1266
    1W        W45627  24.324  26.081   0.346 -0.0349 -0.3548 -0.2776
    1W        W45628  21.258   2.424   1.336  0.0441 -0.2344  0.0294
    1W        W45629   5.044  28.259   9.021 -0.2149  0.2009 -0.0381
    1W        W45630  17.879   6.081   2.302 -0.1215  0.3202 -0.2223
    1W        W45631  18.001  13.739   8.724 -0.0098 -0.5470 -0.1228
    1W        W45632  26.712   2.611   1.865 -0.1112  0.0134  0.1559
    1W        W45633  18.714   5.096   9.334 -0.1307  0.3085  0.1537
    1W        W45634  27.974   9.896   9.171  0.0675  0.6222  0.2587
    1W        W45635  23.197   6.494   3.354  0.0004 -0.2196 -0.1723
    1W        W45636  15.169  27.211   0.811 -0.0653  0.1529  0.0156
    1W        W45637  16.513   4.685   2.804 -0.1124  0.1708  0.3230
    1W        W45638   2.474  17.017   7.444 -0.2451 -0.3049  0.0121
    1W        W45639   7.248   3.020   9.243 -0.0711  0.1001  0.0455
    1W        W45640   9.463  24.939   2.175 -0.1059  0.1456 -0.0292
    1W        W45641  16.855  17.525   5.624  0.0930 -0.1507 -0.2599
    1W        W45642  28.766  13.196   7.146 -0.2724 -0.1532  0.0562
    1W        W45643  29.559  18.625   9.100  0.0465  0.2495  0.3588
    1W        W45644   8.522  14.535   6.988  0.1472 -0.1877 -0.0880
    1W        W45645  25.840   9.275   7.195 -0.0510  0.1929  0.2731
    1W        W45646  20.970  10.409   8.434  0.2482 -0.0348 -0.0473
    1W        W45647   9.306  12.217   7.201 -0.1627 -0.3317  0.0707
    1W        W45648   3.038  19.904   1.564  0.1884  0.1027 -0.0443
    1W        W45649  19.026  19.999   1.101 -0.0147  0.0581 -0.2890
    1W        W45650  19.868  20.619   1.890 -0.0530  0.1071  0.2533
    1W        W45651  14.534   5.069   0.127  0.0993  0.0184 -0.1663
    1W        W45652  12.226  22.548   8.282 -0.0735  0.0788 -0.0583
    1W        W45653  29.083  20.686   7.032 -0.0108 -0.4788 -0.0033
    1W        W45654  26.924  24.096   0.556 -0.2038 -0.1600 -0.0871
    1W        W45655  26.113  15.920   8.304  0.5154 -0.0272 -0.0326
    1W        W45656  20.807  19.085   2.013  0.1007 -0.0850  0.1361
    1W        W45657  21.305  22.393   6.616 -0.1944  0.1028  0.2772
    1W        W45658   3.530   3.297   3.563  0.3374  0.1437  0.0595
    1W        W45659   6.014  20.442   8.036  0.1079 -0.2232 -0.2389
    1W        W45660   8.307  15.376   0.014  0.0219 -0.0374  0.3061
    1W        W45661  12.526  10.024   2.980 -0.0484 -0.0507 -0.0645
    1W        W45662  20.272   5.297   7.770 -0.2835  0.0937  0.2640
    1W        W45663   1.576  25.269   8.304  0.1060  0.2089 -0.3087
    1W        W45664  19.453  23.689   7.749  0.2706 -0.1867  0.2288
    1W        W45665  14.432  24.079   7.882 -0.1595 -0.2439  0.0130
    1W        W45666  11.000  11.336   0.842 -0.0891  0.1241  0.2396
    1W        W45667  12.165   5.907   2.503 -0.0652  0.1815 -0.0861
    1W        W45668  14.096   6.104   0.111  0.1016 -0.4163  0.0830
    1W        W45669  15.035   6.318   1.784  0.2354 -0.1245  0.2119
    1W        W45670  15.116   8.068   8.039  0.3337  0.5149  0.1771
    1W        W45671   4.736  13.349   6.284  0.2604  0.1051 -0.4654
    1W        W45672  29.614  21.657   1.481 -0.1069 -0.0485 -0.3767
    1W        W45673   1.562   0.173   8.465 -0.2324  0.2067 -0.0164
    1W        W45674   7.880  25.812   1.705 -0.0063 -0.0887  0.3563
    1W        W45675  11.729   7.797   1.486 -0.0712 -0.0329 -0.0002
    1W        W45676  29.446  12.637   1.976 -0.0920  0.1872 -0.1396
    1W        W45677  26.712  27.173   0.202  0.1589  0.0810  0.0519
    1W        W45678  14.938  23.956   0.316  0.1242 -0.2624  0.0850
    1W        W45679  21.471  12.607   9.347  0.0272  0.0760  0.3306
    1W        W45680  13.550   4.965   0.578 -0.3995  0.2375 -0.1376
    1W        W45681  17.051   3.024   9.438  0.1447  0.2248 -0.0282
    1W        W45682  18.861  19.494   0.255 -0.0855  0.1829  0.1099
    1W        W45683  13.053  26.387   0.509  0.1378  0.0975 -0.2383
    1W        W45684   2.502  18.145   2.964  0.0666 -0.0958 -0.0849
    1W        W45685  14.477   5.510   3.838 -0.2289  0.1088  0.2614
    1W        W45686  29.570  28.217   7.961 -0.3132 -0.0269  0.1671
    1W        W45687  17.104  27.996   1.837 -0.2840 -0.2057 -0.2133
    1W        W45688  11.971   2.786   8.978  0.0505 -0.0680 -0.0349
    1W        W45689   7.705  10.755   7.204  0.2141 -0.0739  0.1422
    1W        W45690   1.550   0.751   7.629  0.2864 -0.1191 -0.1631
    1W        W45691  19.163  16.475   1.260  0.0690  0.0977 -0.0700
    1W        W45692  13.648  13.371   2.789 -0.2203  0.3895  0.2359
    1W        W45693  26.702  20.640   6.373  0.2396  0.1109 -0.2717
    1W        W45694  12.056  19.482   7.874 -0.1448  0.1281  0.1344
    1W        W45695   0.895   7.275   0.272  0.3579  0.0761  0.0389
    1W        W45696  13.864  19.712   8.973 -0.1697 -0.2816 -0.1197
    1W        W45697  25.666  17.559   1.693 -0.1504 -0.1799 -0.0736
    1W        W45698  21.562  12.400   8.480  0.0930  0.1772 -0.0256
    1W        W45699  21.993   2.293   2.787  0.0367  0.1220  0.0841
    1W        W45700  28.730  17.745   7.559 -0.2154 -0.2615  0.2160
    1W        W45701   1.381  29.480   0.793  0.1800  0.0158  0.3258
    1W        W45702  17.612   3.102   1.556 -0.3014  0.1824 -0.1250
    1W        W45703   7.758   3.557   2.201 -0.3000  0.0340 -0.0888
    1W        W45704  15.554   8.362   0.191  0.1727  0.1778  0.2833
    1W        W45705  28.400   1.532   7.459 -0.0203 -0.0388  0.0516
    1W        W45706  28.823  15.847   1.911 -0.0951  0.1385  0.0729
    1W        W45707   9.930  19.819   8.076  0.0158 -0.0806  0.0519
    1W        W45708   1.354  28.589   1.126  0.1985 -0.1092 -0.1113
    1W        W45709  14.453   5.261   2.747 -0.1008 -0.3549  0.0523
    1W        W45710   8.449  21.718   0.108  0.3331 -0.1766  0.0053
    1W        W45711   8.714   0.065   1.486 -0.3716 -0.1025 -0.1232
    1W        W45712   4.821  29.655   9.418 -0.1888  0.0514 -0.0458
    1W        W45713   0.448  28.507   9.048  0.3310 -0.0479 -0.1154
    1W        W45714  13.009   8.961   7.365  0.1144 -0.0777  0.1187
    1W        W45715  26.597   5.928   1.275  0.1435 -0.0660 -0.2525
    1W        W45716   7.258   6.298   0.897 -0.0897 -0.3079  0.1765
    1W        W45717   9.317  29.525   9.345 -0.2581  0.0766 -0.0532
    1W        W45718  14.186   2.390   8.889  0.4366  0.1397  0.1069
    1W        W45719   8.364   4.553   8.685 -0.0858 -0.0906  0.2857
    1W        W45720  21.134  18.818   9.042  0.1241 -0.0702 -0.1551
    1W        W45721   6.350  12.628   6.519  0.0388 -0.3882  0.1131
    1W        W45722  27.693  24.714   7.528  0.0912 -0.0599  0.0418
    1W        W45723  24.836  13.719   2.220  0.3515  0.3129  0.0662
    1W        W45724  10.701   0.381   9.495  0.1712 -0.0954 -0.1578
    1W        W45725  12.644  29.263   1.751 -0.1573  0.0172 -0.2214
    1W        W45726   3.804  21.321   1.345 -0.0065 -0.1538  0.5256
    1W        W45727  20.128  22.571   1.489  0.0573  0.0727 -0.0906
    1W        W45728  16.893  29.506   8.843  0.1356  0.0118 -0.0336
    1W        W45729  13.029   0.140   8.185 -0.0134 -0.0484 -0.0682
    1W        W45730   5.175  10.144   9.176 -0.0136  0.0506 -0.1104
    1W        W45731   9.033  10.539   1.607  0.1395  0.1025  0.2201
    1W        W45732  24.910  22.119   0.960 -0.4383 -0.1313 -0.0643
    1W        W45733   0.683  21.981   2.091 -0.0072  0.0169  0.0365
    1W        W45734  10.087   7.144   2.213 -0.0664 -0.1717 -0.0883
    1W        W45735   2.938  18.082   2.161 -0.0979  0.0932  0.0657
    1W        W45736  29.202   5.805   7.588 -0.2277 -0.0938 -0.0946
    1W        W45737  28.993   3.265   2.797 -0.2231  0.1187  0.0356
    1W        W45738  20.821  23.748   7.929  0.1613 -0.0526 -0.0056
    1W        W45739  24.917   9.022   7.808  0.1993 -0.4704 -0.1740
    1W        W45740  28.119  27.219   1.153  0.1718  0.3211 -0.0933
    1W        W45741  29.740  24.916   0.829  0.0442 -0.1721  0.2640
    1W        W45742   2.472   9.510   8.189 -0.0471  0.1250 -0.0061
    1W        W45743   5.653  10.835   8.425  0.1377 -0.1484 -0.1612
    1W        W45744  20.200  24.656   8.088 -0.0751  0.1859 -0.0379
    1W        W45745   6.269  24.294   0.970 -0.2849 -0.1893  0.2114
    1W        W45746   1.892  13.310   7.642  0.2311  0.0854 -0.2507
    1W        W45747  16.916  18.258   9.281  0.0087  0.0678 -0.0227
    1W        W45748  18.626  27.912   1.016 -0.1338 -0.1548 -0.0595
    1W        W45749  27.101   1.222   7.247 -0.1724  0.1537 -0.1087
    1W        W45750   5.564  18.384   7.706 -0.5217 -0.2547  0.1610
    1W        W45751  19.524  27.572   2.589 -0.0206 -0.1548  0.2450
    1W        W45752   8.822  28.266   7.461  0.1480 -0.0557 -0.3319
    1W        W45753  27.072  15.573   6.914 -0.0068 -0.0565 -0.2780
    1W        W45754  13.588  16.390   7.024  0.0133  0.0376  0.2727
    1W        W45755   4.023  11.993   6.415  0.0919  0.0787 -0.0221
    1W        W45756   5.158  27.777   2.542 -0.0790  0.1155 -0.1661
    1W        W45757  19.451  23.405   8.637  0.0410  0.0353  0.1028
    1W        W45758  27.219  21.627   1.348 -0.1169 -0.1489 -0.0629
    1W        W45759  21.318   0.506   0.954 -0.3210 -0.0093 -0.1463
    1W        W45760   9.852  18.052   1.548  0.1587 -0.0402  0.1813
    1W        W45761  20.290   8.749   2.660  0.1536 -0.0248  0.3690
    1W        W45762  20.617  25.929   0.051 -0.0321 -0.2326 -0.0130
    1W        W45763  24.566  24.300   7.977  0.0437  0.2265 -0.4952
    1W        W45764  29.329  13.661   9.046  0.1249  0.2171 -0.0382
    1W        W45765  21.337  22.618   2.351 -0.0457  0.0911  0.1476
    1W        W45766  13.401   8.353   8.275  0.2096  0.1504 -0.1260
    1W        W45767  14.527  24.168   0.595 -0.4678  0.3470 -0.2361
    1W        W45768  12.592  29.374   2.616  0.1417 -0.5721 -0.1849
    1W        W45769   5.104  23.379   1.596  0.2637  0.1096 -0.1993
    1W        W45770  10.583   8.953   9.034 -0.1337 -0.1035 -0.3420
    1W        W45771  27.149  19.533   0.003 -0.0868 -0.2881  0.3242
    1W        W45772  24.117   8.174   8.708 -0.0813  0.1706 -0.1644
    1W        W45773   8.624  20.453   6.528  0.2490 -0.0028  0.1093
    1W        W45774  20.221  21.791   8.130  0.1276 -0.2971  0.1252
    1W        W45775  27.974   0.416   3.497 -0.2060  0.0539 -0.0425
    1W        W45776   4.557  10.074   2.196 -0.2275 -0.1934  0.0667
    1W        W45777  20.963  18.181   1.639  0.0705  0.1110 -0.1900
    1W        W45778  17.640  18.245   5.955 -0.1927  0.0219 -0.1776
    1W        W45779  26.735  19.507   0.273  0.1000  0.0609  0.2585
    1W        W45780   7.487  12.605   1.344  0.2023 -0.0864  0.0684
    1W        W45781  10.168   3.558   9.462  0.2133 -0.1954  0.0932
    1W        W45782   1.075  26.939   8.042 -0.0154 -0.0075  0.0979
    1W        W45783   1.079  27.758   7.886  0.0421  0.1247 -0.0953
    1W        W45784  23.430   6.290   2.914  0.0468  0.2254 -0.1639
    1W        W45785  25.263   1.337   1.165 -0.1452  0.0173 -0.2738
    1W        W45786  14.521  19.702   1.232 -0.0140 -0.1364 -0.0594
    1W        W45787   2.411  17.906   9.132 -0.0837  0.0315 -0.0718
    1W        W45788  19.412  12.349   8.547  0.0768  0.0432 -0.0241
    1W        W45789  18.740  20.229   8.949  0.3730 -0.0648 -0.3009
    1W        W45790  19.444  16.814   9.470 -0.0977  0.0953  0.2305
    1W        W45791  15.419   9.327   9.505 -0.0958 -0.0726 -0.0603
    1W        W45792   6.748  14.917   6.547 -0.1939 -0.2230  0.2231
    1W        W45793  18.525  28.525   1.942  0.0672 -0.3569 -0.1282
    1W        W45794  21.563   4.016   3.785 -0.1356 -0.2625 -0.1201
    1W        W45795   9.909  28.277   1.612 -0.0974  0.0546  0.0840
    1W        W45796  13.963   7.724   3.246  0.1004  0.0627 -0.3870
    1W        W45797  22.500  11.908   8.227 -0.4143  0.1744  0.0489
    1W        W45798  27.866   3.432   0.641  0.0350 -0.2349  0.0055
    1W        W45799  18.474  26.040   7.049 -0.0703  0.0959  0.1035
    1W        W45800   9.613   9.619   0.200  0.1844 -0.2725  0.1223
    1W        W45801  23.132   2.855   8.264  0.1131 -0.0674 -0.0368
    1W        W45802   3.745   3.189   0.608  0.0744  0.2205 -0.1745
    1W        W45803  11.235   3.455   3.410 -0.0854 -0.0678 -0.4486
    1W        W45804  27.206  14.643   9.254  0.3075 -0.1617 -0.0222
    1W        W45805   2.688   5.106   7.493 -0.3339 -0.1007  0.3165
    1W        W45806  25.614   6.864   0.640 -0.1423 -0.2393 -0.0626
    1W        W45807  21.926  12.887   0.044  0.2799  0.0403 -0.0773
    1W        W45808  10.354  28.298   6.488  0.0489  0.0139  0.1840
    1W        W45809  13.217   6.917   8.939 -0.1973  0.1254  0.1015
    1W        W45810  28.301  11.952   7.808 -0.0065 -0.1125  0.0102
    1W        W45811  13.137   0.051   0.708  0.0211 -0.0385 -0.3056
    1W        W45812  26.765  17.269   6.889  0.1394  0.0847  0.0500
    1W        W45813  15.117   8.685   0.127  0.0065 -0.3266  0.0687
    1W        W45814  24.259  17.477   7.822 -0.0734 -0.0688 -0.1077
    1W        W45815  19.191  26.254   0.124  0.1369  0.3116 -0.0065
    1W        W45816  27.403  10.595   2.826  0.1643  0.1406  0.2298
    1W        W45817   6.679  20.380   9.430  0.0551 -0.0382  0.1339
    1W        W45818  20.763   4.557   9.276 -0.0563 -0.1904 -0.2710
    1W        W45819  25.109  17.474   8.976 -0.2956  0.0967  0.2238
    1W        W45820   0.424  17.206   0.386  0.0057  0.1115 -0.0568
    1W        W45821  29.745  13.353   1.571  0.0008  0.0175 -0.4402
    1W        W45822  12.177  16.259   7.372  0.0954 -0.1320  0.0390
    1W        W45823   1.507   6.904   1.171  0.0219 -0.0409 -0.3057
    1W        W45824  10.948  15.429   6.545 -0.1742 -0.0089  0.5786
    1W        W45825  20.129  21.411   6.870  0.1324 -0.2197  0.2229
    1W        W45826  25.580  18.886   0.525 -0.2598  0.0660  0.4133
    1W        W45827  27.798   0.250   0.444 -0.1529  0.1687  0.3768
    1W        W45828  24.716  14.327   0.606 -0.2602 -0.0494  0.3146
    1W        W45829   4.249   7.844   7.013  0.0449  0.0593 -0.2275
    1W        W45830  23.250   5.608   1.868  0.1664  0.0796 -0.3020
    1W        W45831   4.142  28.655   7.071  0.3520 -0.0403 -0.0330
    1W        W45832  20.891  22.722   7.440 -0.0967  0.4770 -0.2038
    1W        W45833   6.136   4.376   9.083 -0.0676  0.3696 -0.0189
    1W        W45834  25.533  29.733   7.972  0.4398  0.2368  0.1477
    1W        W45835  23.559  25.316   2.559  0.1783  0.1985  0.2006
    1W        W45836  24.726   3.484   8.062 -0.1285  0.3812 -0.0187
    1W        W45837   8.745   0.301   6.532  0.1101 -0.2729  0.0447
    1W        W45838  19.977  21.479   7.838 -0.2387  0.0553  0.1161
    1W        W45839   7.569  18.071   9.437 -0.0573 -0.2706 -0.2979
    1W        W45840   7.335   9.154   2.026 -0.3278 -0.0089 -0.3002
    1W        W45841  19.101  15.190   1.521  0.3430  0.2836 -0.0487
    1W        W45842  26.741   0.127   8.574  0.1155  0.2336 -0.3767
    1W        W45843  20.497   0.769   3.647  0.3216  0.0871 -0.1462
    1W        W45844  28.620  14.212   1.463  0.2641 -0.0203  0.0261
    1W        W45845   8.421   5.099   0.106  0.0910 -0.2880 -0.0745
    1W        W45846  20.407  27.155   2.301  0.1637 -0.1091 -0.0122
    1W        W45847  21.835  16.270   7.905 -0.3612 -0.4023 -0.6933
    1W        W45848  24.852  20.939   9.498 -0.0292 -0.1762  0.0108
    1W        W45849  19.614  24.387   7.181  0.1314  0.0251 -0.0539
    1W        W45850  16.123   1.678   3.493 -0.3113 -0.1002 -0.0583
    1W        W45851  26.498  28.532   8.211  0.0834 -0.3154  0.0788
    1W        W45852  24.373   9.464   2.423  0.1313 -0.1120  0.0944
    1W        W45853  15.092  29.050   2.057  0.0050  0.3060  0.2109
    1W        W45854   3.188  24.680   5.536 -0.5246  0.1422 -0.1154
    1W        W45855  29.075  18.495   2.510 -0.2750 -0.2986  0.0014
    1W        W45856   5.209   7.699   7.256  0.0411  0.2604  0.0851
    1W        W45857   7.218  25.318   1.881  0.0505 -0.1559 -0.1679
    1W        W45858   3.726   2.314   8.914 -0.3348 -0.1075 -0.1087
    1W        W45859  10.722  24.981   1.124  0.0117 -0.2392 -0.3397
    1W        W45860  25.410  18.824   8.683  0.2778 -0.2599  0.2230
    1W        W45861  17.530  27.139   1.966  0.2608 -0.0664 -0.1536
    1W        W45862   3.961  19.930   1.850  0.1840  0.0166 -0.0556
    1W        W45863  13.064   4.126   2.468 -0.3852 -0.1841  0.0560
    1W        W45864  28.370  12.538   6.971  0.2414  0.0137  0.0392
    1W        W45865  25.823  14.861   8.146  0.0829 -0.0908  0.1331
    1W        W45866   8.750   3.118   0.542 -0.0354 -0.1645  0.0998
    1W        W45867  12.186  25.044   6.605  0.0809 -0.0184  0.2040
    1W        W45868  17.738  19.462   1.556  0.1353  0.0272 -0.1403
    1W        W45869  22.216   4.147   8.504  0.1886  0.1760  0.1329
    1W        W45870  22.718  29.467   9.296  0.0711 -0.3476 -0.2123
    1W        W45871   2.760  24.997   8.904  0.1193  0.0618 -0.0946
    1W        W45872  17.329   4.911   3.300  0.2020 -0.1294 -0.1589
    1W        W45873  28.585   5.507   1.875  0.0850  0.0836  0.0843
    1W        W45874   0.055  24.462   6.251  0.2971 -0.4684  0.2536
    1W        W45875  25.848  16.736   0.013 -0.0046 -0.1065 -0.0147
    1W        W45876  27.873   8.526   7.566  0.0203 -0.1325  0.0489
    1W        W45877   0.789  19.103   7.864 -0.1570 -0.1369 -0.1232
    1W        W45878   6.599  10.343   1.087 -0.3898  0.0293 -0.2639
    1W        W45879  27.115   2.133   6.767  0.1792 -0.2214 -0.1738
    1W        W45880   4.764   8.566   3.009  0.1284  0.0649 -0.1142
    1W        W45881  19.279   7.347   8.825 -0.1774 -0.4667  0.2867
    1W        W45882  29.512  14.700   2.430 -0.0747  0.0882  0.0360
    1W        W45883  20.536  19.171   1.092  0.1277  0.0203 -0.5117
    1W        W45884  23.861  11.113   6.929  0.2773  0.0536 -0.2949
    1W        W45885  27.696  19.444   3.270 -0.1822  0.0977 -0.0204
    1W        W45886  21.409   5.196   8.443  0.0241 -0.1184  0.0960
    1W        W45887   0.979  11.350   9.519  0.2426 -0.1458 -0.2169
    1W        W45888  25.808   9.367   8.075  0.0966  0.5083  0.1219
    1W        W45889   1.251   1.075   8.778 -0.0732  0.1399  0.2051
    1W        W45890  19.711  22.358   1.870  0.1242  0.0588  0.2360
    1W        W45891   9.593  27.927   0.784 -0.2412  0.0040 -0.3484
    1W        W45892   4.524  18.547   8.157  0.3161 -0.0908 -0.2025
    1W        W45893  25.950  14.377   2.148  0.0496 -0.1418 -0.3205
    1W        W45894   7.439  10.988   1.525  0.0680 -0.5095  0.0711
    1W        W45895  27.416  19.278   0.977  0.0964  0.2558  0.2139
    1W        W45896   0.122  24.397   1.322 -0.0464  0.0239 -0.2215
    1W        W45897  14.388  22.001   8.069  0.0848  0.1004 -0.0482
    1W        W45898  18.653  24.397   7.086  0.0040  0.1035 -0.1288
    1W        W45899  21.479  20.562   8.673  0.0212  0.0067  0.0986
    1W        W45900  10.255   5.613   0.885  0.1435  0.2246  0.1745
    1W        W45901  18.044   2.323   9.344  0.0540  0.1611  0.1354
    1W        W45902  29.806  24.424   0.091 -0.0175 -0.0314  0.1840
    1W        W45903  11.624  20.507   9.140 -0.3670  0.1886  0.0961
    1W        W45904  20.997  16.020   7.008 -0.2200 -0.3090 -0.1042
    1W        W45905   9.943   9.654   1.011  0.0462  0.0918  0.0914
    1W        W45906  15.005  24.045   1.209  0.0300  0.1034 -0.0519
    1W        W45907  26.859   9.033   2.365  0.3712 -0.2935 -0.2718
    1W        W45908   9.932   8.698   7.802 -0.4292  0.1127 -0.1709
    1W        W45909  20.601   5.716   1.827  0.3554  0.0770 -0.1817
    1W        W45910  15.647   2.754   3.955  0.0839 -0.2104  0.2111
    1W        W45911  14.398  23.816   0.252 -0.1004 -0.4080  0.2780
    1W        W45912  21.732   6.776   3.417 -0.1432 -0.3515  0.0035
    1W        W45913  25.470  14.995   0.219 -0.1384  0.0476  0.0352
    1W        W45914  10.808  14.462   1.973 -0.0613  0.2486 -0.0427
    1W        W45915  29.561  15.534   8.272 -0.0392  0.0939  0.2487
    1W        W45916   8.011   9.160   0.125 -0.4108 -0.2445  0.0444
    1W        W45917  26.920   4.665   0.014 -0.0910  0.2874  0.0620
    1W        W45918  21.790  14.870   1.877 -0.0967 -0.0249 -0.1890
    1W        W45919   2.471  10.123   1.411  0.3061 -0.0450 -0.2444
    1W        W45920  13.258  12.741   1.514  0.1288  0.0995  0.0103
    1W        W45921  16.127   0.136   2.282 -0.0827 -0.0219  0.2404
    1W        W45922   7.512  24.845   9.233 -0.2187 -0.0395 -0.2999
    1W        W45923  26.132  18.317   8.573 -0.2639  0.0251  0.0128
    1W        W45924  26.626   1.436   7.147 -0.0060 -0.1384 -0.1504
    1W        W45925  15.629  19.900   7.597 -0.1412 -0.3161 -0.0255
    1W        W45926   7.469  21.757   9.095 -0.1152  0.0945  0.1639
    1W        W45927  10.547  25.291   2.069 -0.1769  0.0313  0.0879
    1W        W45928   1.661  20.697   1.773 -0.0977 -0.1708  0.0616
    1W        W45929   3.808  11.272   1.761  0.0833 -0.0049 -0.1376
    1W        W45930   3.860   1.334   9.193 -0.3182  0.0470  0.0583
    1W        W45931   5.442  16.942   7.477  0.1680 -0.1142  0.1311
    1W        W45932  27.942   5.744   7.826  0.1263  0.3478 -0.2764
    1W        W45933  14.216  14.695   9.409  0.0741 -0.0849  0.2932
    1W        W45934   1.447   9.605   1.180  0.0642  0.0224 -0.6725
    1W        W45935  22.349  16.527   8.991 -0.1563  0.1439 -0.1602
    1W        W45936  25.991   9.140   8.501 -0.2605  0.0768  0.2408
    1W        W45937  25.408  21.223   2.533  0.1124  0.0170  0.0499
    1W        W45938  18.489   7.593   1.765  0.2736 -0.1050  0.0240
    1W        W45939   8.053   6.982   0.341  0.1057  0.3721 -0.2887
    1W        W45940  13.733   7.313   0.530 -0.1196  0.1300 -0.0187
    1W        W45941  28.548  28.154   8.875 -0.0324  0.1759  0.0429
    1W        W45942  10.141  15.888   2.176  0.3077  0.1199  0.0110
    1W        W45943  20.375  12.560   1.230  0.1963  0.0135 -0.3491
    1W        W45944   1.738   1.171   2.920  0.1692 -0.0959 -0.0892
    1W        W45945  14.266   9.877   1.113 -0.0561  0.1524 -0.0885
    1W        W45946  13.885   0.621   2.545 -0.3393 -0.4264  0.1733
    1W        W45947   7.486  23.273   0.637  0.4310 -0.1503  0.1077
    1W        W45948  19.431  18.891   1.570 -0.0927 -0.4008  0.3248
    1W        W45949  19.532  15.628   5.858 -0.0432 -0.0258  0.1894
    1W        W45950  29.105  25.231   7.838  0.2050  0.0023 -0.0470
    1W        W45951   8.422  14.707   8.153 -0.0466 -0.1144  0.1930
    1W        W45952  22.086  18.969   7.141 -0.1236  0.1394 -0.0569
    1W        W45953  10.122  20.015   1.771 -0.0290 -0.1728 -0.0103
    1W        W45954  26.721   2.860   7.744  0.1237  0.0724 -0.0652
    1W        W45955  13.206  12.704   8.051  0.3178  0.1267  0.2118
    1W        W45956   3.167  26.717   0.815 -0.0586  0.0829  0.1185
    1W        W45957   3.040  24.765   8.480 -0.1187 -0.3162 -0.0023
    1W        W45958   4.782   4.595   1.714 -0.0845  0.0688  0.2739
    1W        W45959   1.548  13.140   8.564  0.0035  0.2177  0.1201
    1W        W45960  27.321  12.215   6.720 -0.1374  0.1689 -0.0324
    1W        W45961  20.518  14.084   0.019 -0.2247 -0.0428  0.1091
    1W        W45962  15.375  21.990   1.274 -0.0159 -0.0516  0.2271
    1W        W45963  26.375  21.938   7.285  0.0100  0.1196 -0.2388
    1W        W45964  23.890  27.370   0.392  0.1396  0.0270  0.0380
    1W        W45965  22.179  21.692   8.569 -0.1126  0.1667 -0.0154
    1W        W45966  25.166  29.318   0.312  0.1401 -0.3942  0.2139
    1W        W45967  18.525   2.847   7.848 -0.0803 -0.5152 -0.0538
    1W        W45968  12.213  23.175   0.706 -0.1241 -0.0310  0.0893
    1W        W45969  11.388  13.804   9.243 -0.2314  0.1438  0.1499
    1W        W45970  16.219  26.508   0.410 -0.0745 -0.1188  0.1722
    1W        W45971  27.532  28.268   2.017  0.1290  0.0125  0.0697
    1W        W45972  11.774   3.618   2.349 -0.4862  0.0754 -0.1506
    1W        W45973   4.569   0.660   6.798 -0.2017 -0.1617 -0.1197
    1W        W45974  12.392  11.759   6.957 -0.0634  0.1213  0.0272
    1W        W45975  13.650   6.644   9.062 -0.2194  0.0491  0.0524
    1W        W45976  15.011   8.677   7.920  0.1173  0.1797 -0.1765
    1W        W45977  16.888   9.390   2.233  0.0199  0.0608 -0.0311
    1W        W45978  17.746  16.526   9.521  0.3395  0.0987 -0.0454
    1W        W45979  25.145   7.713   0.371 -0.0549  0.2711  0.2381
    1W        W45980  27.537   6.828   0.793  0.1392 -0.2567  0.3254
    1W        W45981  15.048  26.767   1.775  0.0720  0.2219  0.1296
    1W        W45982   0.358   0.374   1.309 -0.0490 -0.0979  0.0648
    1W        W45983  26.723  12.634   8.836 -0.0014  0.2323  0.1458
    1W        W45984  24.725  21.424   8.715  0.1928 -0.2072 -0.1211
    1W        W45985   9.111  28.203   6.720 -0.0663 -0.0100 -0.0736
    1W        W45986   9.232  17.774   1.766 -0.0364 -0.2679  0.2950
    1W        W45987  18.275   1.440   8.393  0.0186 -0.2039  0.0294
    1W        W45988   1.407  10.726   5.934  0.1102  0.1251  0.1298
    1W        W45989  16.376   6.803   0.139 -0.0590  0.0112  0.0028
    1W        W45990   0.584  13.091   8.351 -0.3167 -0.0182  0.2425
    1W        W45991   3.235   6.728   0.627 -0.0378  0.1836 -0.0464
    1W        W45992  14.398   9.205   8.577  0.0612 -0.1161 -0.0960
    1W        W45993  17.585  10.490   1.141  0.0318 -0.0493  0.1683
    1W        W45994  11.647   3.364   1.904 -0.2358  0.0300  0.2439
    1W        W45995   1.126  23.006   8.453  0.1182 -0.1562  0.0704
    1W        W45996  21.115  24.567   8.457 -0.5085 -0.2683 -0.0406
    1W        W45997  13.336   3.675   0.326 -0.4485 -0.4712 -0.1351
    1W        W45998  23.170   5.015   3.650  0.1959  0.0418 -0.1494
    1W        W45999   0.551   1.160   1.874 -0.1855 -0.0263  0.3177
    1W        W46000  20.860   5.433   3.129 -0.0686  0.3011 -0.1777
    1W        W46001   6.091  10.439   1.035 -0.0863  0.1995  0.0708
    1W        W46002   4.147  19.074   7.798 -0.4449  0.4654 -0.2424
    1W        W46003  19.791  24.467   6.658 -0.2754 -0.2579  0.2153
    1W        W46004  18.866   9.485   8.044 -0.1720 -0.0103 -0.1793
    1W        W46005  28.837  28.731   6.320 -0.3118 -0.0810 -0.0145
    1W        W46006  25.288   4.886   7.447 -0.1490 -0.2023 -0.1823
    1W        W46007  14.479  17.573   0.561 -0.2016 -0.0128 -0.4870
    1W        W46008  18.938  25.843   6.240 -0.3050  0.1072  0.0777
    1W        W46009  28.469  24.750   8.162 -0.1578 -0.0088  0.2451
    1W        W46010  25.729   4.083   1.167 -0.0825 -0.3952  0.2153
    1W        W46011   7.071  20.341   9.115 -0.0030 -0.0419  0.0320
    1W        W46012  16.783  26.081   9.228  0.1476 -0.0136 -0.4175
    1W        W46013   7.095  19.507   7.806  0.1418 -0.0037 -0.3289
    1W        W46014  12.078  27.381   2.965  0.0276  0.2639  0.1932
    1W        W46015  16.237  22.619   0.054  0.1492  0.3258  0.3409
    1W        W46016  17.058  28.631   9.057  0.0675 -0.0989  0.0201
    1W        W46017   6.116   8.310   2.698  0.5228 -0.3113  0.1995
    1W        W46018  18.255   8.635   3.112 -0.1751  0.0848  0.2028
    1W        W46019   7.246  26.806   6.839 -0.3560 -0.0366 -0.0547
    1W        W46020  25.372   6.156   1.307  0.1629 -0.2461  0.1816
    1W        W46021  12.947  12.073   7.178 -0.2845 -0.1349  0.0790
    1W        W46022   0.556   2.445   8.491  0.0648 -0.2179  0.0645
    1W        W46023   8.338  10.233   1.608  0.1552  0.0065 -0.0758
    1W        W46024   2.218  26.468   4.956 -0.0605  0.0482 -0.2348
    1W        W46025  23.073  27.356   0.250  0.2296 -0.0261  0.0504
    1W        W46026  26.532   7.816   0.223  0.4110  0.2007 -0.2899
    1W        W46027  18.670   6.808   8.335  0.2660  0.0005 -0.1728
    1W        W46028  10.835   5.247   7.873  0.0891  0.3324 -0.0378
    1W        W46029   2.709  12.874   9.408 -0.0113 -0.1102 -0.0655
    1W        W46030  14.805   1.657   1.389  0.0949 -0.0277  0.2637
    1W        W46031  22.443   7.487   0.566 -0.0538  0.0341  0.2794
    1W        W46032   8.448  22.979   0.760  0.1268 -0.0449 -0.1969
    1W        W46033  19.357  22.026   6.368 -0.0510  0.0853  0.1088
    1W        W46034   0.195   2.517   8.040  0.1750  0.1780 -0.0646
    1W        W46035  27.307  21.003   8.539 -0.0548  0.0126 -0.0369
    1W        W46036   8.514  29.485   0.847  0.1989 -0.0922 -0.0887
    1W        W46037   8.981  27.497   8.204  0.0212 -0.0505  0.1618
    1W        W46038   4.731  16.092   8.532  0.1106  0.0187 -0.0325
    1W        W46039   7.115   7.294   8.883  0.2346 -0.1713  0.0318
    1W        W46040   2.469  20.613   7.999  0.0392  0.0361  0.2513
    1W        W46041  24.428  11.706   1.894 -0.0586 -0.3035  0.2818
    1W        W46042  22.095  19.193   6.662 -0.0283 -0.0022 -0.0885
    1W        W46043   3.145  10.456   7.528  0.0937 -0.0112 -0.0326
    1W        W46044   8.507  26.079   1.352 -0.3972  0.0503  0.5744
    1W        W46045   4.426   0.383   0.767  0.0672  0.0146  0.2798
    1W        W46046   9.945   0.962   0.694  0.0843 -0.0145  0.3927
    1W        W46047   2.736  25.331   9.295  0.0028  0.1136  0.0141
    1W        W46048  13.641  24.280   1.114 -0.2255 -0.1115  0.1396
    1W        W46049   3.689  26.310   6.790 -0.1648 -0.0496  0.0916
    1W        W46050  23.197  10.072   1.273 -0.0272  0.1971  0.2760
    1W        W46051  18.657  26.144   1.572  0.0788  0.3977 -0.1472
    1W        W46052  27.612   3.545   0.120 -0.1304  0.1615  0.0604
    1W        W46053   0.409  20.650   7.671  0.0095 -0.0519 -0.0885
    1W        W46054  11.078   2.634   8.081  0.0779  0.2415  0.1997
    1W        W46055  23.488  16.220   0.297 -0.0543 -0.1660  0.0811
    1W        W46056  28.213  21.752   9.094 -0.0589 -0.2842 -0.1912
    1W        W46057  18.076  26.056   9.193  0.0594  0.0593 -0.1182
    1W        W46058  13.052  28.103   8.522 -0.0477  0.0185  0.1433
    1W        W46059  29.201  29.717   7.121 -0.2038  0.0163 -0.0204
    1W        W46060  28.125   2.661   0.310  0.2137  0.1953  0.0002
    1W        W46061  27.285   3.133   2.903  0.2138  0.1490 -0.1607
    1W        W46062   0.454   8.351   7.529  0.3544  0.0338 -0.0896
    1W        W46063  29.333  11.138   6.984 -0.0152  0.0025 -0.2989
    1W        W46064   5.493  14.736   8.191 -0.2005  0.2529  0.0356
    1W        W46065  22.314  11.648   1.868  0.0745 -0.1330  0.1755
    1W        W46066  25.556  25.678   2.138 -0.0737 -0.3706  0.5240
    1W        W46067  13.836   3.225   9.456 -0.1515 -0.0696 -0.1046
    1W        W46068  18.766   5.905   2.639  0.0938  0.2249 -0.0887
    1W        W46069  22.996  25.846   1.171 -0.1505 -0.0053 -0.3769
    1W        W46070  10.897  23.066   1.955 -0.1121 -0.0039 -0.2255
    1W        W46071  17.085  16.970   0.535 -0.0362 -0.1655 -0.3410
    1W        W46072  26.184   2.535   3.248  0.0937  0.2114  0.0953
    1W        W46073  24.643   2.399   1.879 -0.0071 -0.0223 -0.0723
    1W        W46074   9.195  23.731   6.974  0.1293 -0.2849 -0.1551
    1W        W46075   6.203  22.075   7.577  0.0234 -0.0970 -0.3149
    1W        W46076  22.835  16.434   8.895  0.0884  0.1804  0.0255
    1W        W46077  25.300  21.917   7.873 -0.0737  0.0374  0.2054
    1W        W46078  18.795   9.256   9.132  0.0519  0.0006  0.1156
    1W        W46079  11.128  11.197   0.071  0.1486 -0.0558  0.3939
    1W        W46080  10.798   6.402   8.792 -0.0826  0.0211 -0.0799
    1W        W46081   1.721   9.498   1.996  0.2656  0.2680 -0.2451
    1W        W46082  26.678  19.341   1.587 -0.2758  0.2498  0.1047
    1W        W46083  22.977   9.148   7.375  0.2247  0.2574 -0.2979
    1W        W46084  23.956   2.582   8.809 -0.2561  0.0196 -0.0721
    1W        W46085   2.019   6.988   1.902  0.1465 -0.3149  0.2183
    1W        W46086  13.318   2.456   3.202 -0.2170 -0.1709 -0.0066
    1W        W46087  26.119   9.575   2.373  0.0283 -0.0976 -0.2603
    1W        W46088  16.604   1.365   0.040  0.2126 -0.2454  0.0417
    1W        W46089  23.091   2.253   7.565  0.0103  0.1307 -0.0799
    1W        W46090   3.760  13.577   1.956 -0.0177  0.2049  0.2055
    1W        W46091  12.103  29.857   9.143 -0.0577  0.1643 -0.3448
    1W        W46092   7.177   7.275   2.197  0.0448 -0.2639  0.0606
    1W        W46093  12.400  12.273   6.947  0.2822  0.0188  0.0693
    1W        W46094  11.195  16.590   2.578  0.0593 -0.1158 -0.1299
    1W        W46095   8.982  16.525   6.871  0.2156 -0.1519 -0.1262
    1W        W46096   5.135  20.071   6.496 -0.0069 -0.1800  0.2500
    1W        W46097   9.891   3.085   2.260 -0.0317  0.2375  0.1573
    1W        W46098   8.120   8.683   1.750 -0.1773  0.2569  0.0329
    1W        W46099  19.426  18.471   9.249  0.3348 -0.0433  0.0512
    1W        W46100  22.300   2.323   1.632 -0.0493 -0.0389 -0.1372
    1W        W46101  16.298  26.332   7.898 -0.1423 -0.0325 -0.0334
    1W        W46102  16.488   1.205   2.400 -0.3383 -0.1546 -0.0134
    1W        W46103  18.471   0.269   1.012 -0.0436  0.3076 -0.1523
    1W        W46104  21.335  12.067   7.478 -0.1459 -0.0848  0.0690
    1W        W46105  15.430  28.535   1.264  0.0240 -0.1295  0.0169
    1W        W46106   2.683   1.722   7.913  0.2251 -0.0267  0.1685
    1W        W46107  29.272  13.495   1.831  0.4097 -0.2683  0.1945
    1W        W46108   9.571   2.028   8.175 -0.1275  0.2603  0.1673
    1W        W46109  21.891  12.314   9.263  0.1115  0.0484  0.0451
    1W        W46110   1.879  12.382   7.925  0.0645 -0.2799  0.3229
    1W        W46111  24.543  18.777   9.010  0.1111 -0.0318 -0.1481
    1W        W46112  23.045  18.378   7.959 -0.2410  0.2740  0.0225
    1W        W46113  11.892  19.619   6.397  0.1315 -0.0931 -0.4681
    1W        W46114  29.249  25.094   0.133 -0.2809 -0.3275 -0.0247
    1W        W46115  23.273  29.103   0.189 -0.0054 -0.0954  0.2439
    1W        W46116   7.626  24.870   1.796 -0.3084  0.1276 -0.0998
    1W        W46117  18.173   2.184   4.012 -0.1390  0.0761  0.1906
    1W        W46118  29.321  25.829   8.328 -0.2373 -0.2015 -0.0171
    1W        W46119  22.624  10.967   9.213  0.0582 -0.0655  0.1569
    1W        W46120  26.507  22.358   7.591 -0.1142 -0.2735 -0.0717
    1W        W46121  23.591   7.302   1.140 -0.0644  0.2185 -0.2038
    1W        W46122   5.373   0.651   0.199 -0.2420 -0.1205  0.0796
    1W        W46123   6.823   8.175   8.747 -0.5712 -0.0052  0.0076
    1W        W46124  10.206   1.429   0.864  0.1545  0.2895  0.3984
    1W        W46125   9.351  24.950   6.888 -0.2733 -0.0085  0.5663
    1W        W46126   7.039   9.454   1.804 -0.1255  0.1280  0.0665
    1W        W46127   7.738   5.214   2.532  0.3269 -0.2053 -0.0635
    1W        W46128  16.266  24.879   8.062 -0.0939  0.0456  0.1508
    1W        W46129   9.987   5.659   7.721  0.0698 -0.1221  0.2556
    1W        W46130  16.357  17.160   2.092  0.2621 -0.0992 -0.2740
    1W        W46131  12.628  24.037   7.888  0.0678 -0.1591 -0.0851
    1W        W46132  25.436  25.413   7.365  0.1302 -0.3800  0.0973
    1W        W46133  24.761  26.634   9.018 -0.0469 -0.0753 -0.2009
    1W        W46134  20.046  25.271   2.586  0.0578  0.1505  0.2639
    1W        W46135  25.856  26.323   8.752 -0.0397  0.1719 -0.1774
    1W        W46136  28.827  11.258   8.121 -0.2227 -0.0677 -0.0500
    1W        W46137  27.249   3.834   7.338 -0.1007  0.3552 -0.0417
    1W        W46138   1.593  14.008   8.111 -0.2776 -0.0167 -0.2164
    1W        W46139  17.114  20.301   7.786  0.2840 -0.0311 -0.3033
    1W        W46140   9.934  26.256   1.647  0.1269 -0.1705  0.0663
    1W        W46141   8.678  13.110   9.243 -0.1568 -0.2424 -0.1867
    1W        W46142  23.083   2.014   9.508 -0.0239  0.0195  0.1695
    1W        W46143  28.551  19.548   2.181  0.3396  0.2852 -0.2058
    1W        W46144  13.266  23.424   6.063 -0.0598  0.2664 -0.1713
    1W        W46145  26.365   9.962   2.028 -0.2664  0.0596  0.1194
    1W        W46146   3.928  18.680   2.741 -0.3562  0.1752  0.1082
    1W        W46147  12.735  18.768   2.323 -0.2194  0.0971  0.0963
    1W        W46148  19.214  10.287   2.505 -0.2468  0.0537 -0.0628
    1W        W46149  13.345  21.190   5.559 -0.2845  0.1099 -0.2779
    1W        W46150  13.767   7.780   0.963  0.2313 -0.0139 -0.0190
    1W        W46151  15.193   0.681   8.081 -0.0252  0.0067 -0.2296
    1W        W46152   1.233  17.671   6.669 -0.1477  0.2439 -0.2033
    1W        W46153  13.374  26.214   7.352  0.0246 -0.0628  0.0885
    1W        W46154  27.507  28.692   2.983  0.0698  0.0456  0.0476
    1W        W46155   3.516   4.275   1.090  0.1491  0.1389  0.1392
    1W        W46156   6.644  13.344   8.475  0.0870  0.1311  0.0557
    1W        W46157  12.348   5.571   2.920  0.2627  0.4496 -0.3209
    1W        W46158   6.683  11.510   7.615  0.2296 -0.1190 -0.1908
    1W        W46159  14.449  21.450   7.536 -0.0441  0.1503 -0.0888
    1W        W46160  24.305   8.655   0.327  0.0701 -0.1067  0.2972
    1W        W46161   5.159  16.219   1.389 -0.1057  0.0152  0.1484
    1W        W46162  22.552   8.232   0.559  0.3845  0.1948 -0.1486
    1W        W46163   5.639  29.096   1.762 -0.0251 -0.0100 -0.2482
    1W        W46164   4.837   5.953   1.067 -0.0113  0.0354  0.0849
    1W        W46165   6.959   5.164   7.598 -0.1347  0.0726  0.3958
    1W        W46166  15.128   1.815   9.514  0.0145  0.1095 -0.3367
    1W        W46167   2.096   5.610   6.960 -0.3069 -0.1154 -0.0664
    1W        W46168  21.449  17.937   1.590 -0.1317 -0.2537  0.0851
    1W        W46169   2.406  10.149   0.174 -0.1373  0.1286  0.1171
    1W        W46170  12.087  18.220   8.712 -0.0617 -0.1766 -0.2394
    1W        W46171  13.607  28.998   7.713  0.0510 -0.4002 -0.1824
    1W        W46172  20.023  17.199   6.968 -0.3389  0.1417 -0.1415
    1W        W46173  26.546  28.752   7.320 -0.1874  0.0743  0.0857
    1W        W46174   2.259  14.344   2.127 -0.2307 -0.1845 -0.3186
    1W        W46175  27.222   3.599   9.194 -0.0516 -0.1127  0.1622
    1W        W46176  24.279   2.391   0.504  0.2677 -0.0242 -0.1347
    1W        W46177  12.746  22.036   7.751 -0.1396 -0.0645 -0.1452
    1W        W46178  26.096  12.192   1.358  0.1085  0.0564 -0.0779
    1W        W46179   5.271  26.238   8.091 -0.2059 -0.0390 -0.1495
    1W        W46180  14.313  19.667   6.565 -0.4119  0.1190 -0.0691
    1W        W46181  19.162  10.209   8.866 -0.4204 -0.1954 -0.2114
    1W        W46182   9.711  19.452   0.724  0.2710 -0.3034 -0.0821
    1W        W46183  22.916  16.041   0.216 -0.0919  0.0486  0.2599
    1W        W46184  14.404  12.889   2.784  0.1337  0.0499 -0.3524
    1W        W46185  29.581  26.998   0.256 -0.1741  0.3653  0.2468
    1W        W46186  14.055  24.753   0.082 -0.0852 -0.1613  0.1176
    1W        W46187   8.299  18.626   7.279  0.0225  0.2071  0.1647
    1W        W46188  21.107   6.293   8.461  0.0517 -0.2734  0.2714
    1W        W46189  20.710  25.438   6.749 -0.2241  0.0824 -0.1471
    1W        W46190  29.764  16.582   2.689  0.0314  0.0915  0.1628
    1W        W46191   4.446  12.609   6.924  0.1138  0.2067 -0.0531
    1W        W46192   4.863   7.218   1.656 -0.2427 -0.1099  0.1302
    1W        W46193   6.226  11.940   7.332  0.1354  0.4018 -0.0105
    1W        W46194  14.393   4.756   8.884  0.1305 -0.0144 -0.0704
    1W        W46195  14.026   5.310   1.438  0.1683 -0.2242 -0.0144
    1W        W46196   7.884  10.744   0.596  0.0594 -0.0461 -0.2091
    1W        W46197  29.699  24.619   6.981  0.2411  0.2671 -0.1780
    1W        W46198  16.984  25.100   5.407  0.1708 -0.0174  0.0282
    1W        W46199  25.694  18.035   7.013 -0.1030 -0.2041  0.3359
    1W        W46200   9.623  23.386   8.500  0.5070 -0.2204 -0.3620
    1W        W46201   6.232  11.931   2.247 -0.0556 -0.0585  0.2028
    1W        W46202  19.151  24.507   7.287 -0.0215 -0.2271  0.0402
    1W        W46203  26.080  29.086   1.466 -0.1762 -0.0525  0.2016
    1W        W46204  11.281   5.007   7.685 -0.0183 -0.0871 -0.1086
    1W        W46205  25.706  17.912   0.205 -0.1817 -0.1750 -0.0213
    1W        W46206  23.787  23.738   7.018  0.0093  0.0790  0.2311
    1W        W46207   7.651  26.309   8.836 -0.0000  0.3476 -0.0222
    1W        W46208  18.090  20.938   0.681 -0.1877  0.1062  0.4189
    1W        W46209  10.735  11.471   7.115  0.1159 -0.0170  0.1349
    1W        W46210  22.323   0.954   9.105  0.0902 -0.2403 -0.0497
    1W        W46211  28.459   1.953   7.957  0.1972  0.0272  0.1628
    1W        W46212   7.413  17.853   6.861 -0.1267 -0.1694  0.1225
    1W        W46213   0.053  26.919   9.126  0.1471 -0.2416 -0.1062
    1W        W46214  15.132   4.476   8.502 -0.0657  0.0142  0.0238
    1W        W46215  13.602   3.545   9.151 -0.0427 -0.1309 -0.1647
    1W        W46216   9.586  26.488   7.457  0.1639 -0.2833 -0.1883
    1W        W46217  25.133   7.547   2.494 -0.0434 -0.0278 -0.2557
    1W        W46218  11.177  19.074   8.396  0.4415  0.3119  0.0201
    1W        W46219  20.669  12.041   0.238 -0.0609 -0.1490  0.1907
    1W        W46220  11.114  25.297   8.170  0.0184 -0.1363 -0.0122
    1W        W46221  24.035  12.203   8.872  0.1476 -0.1602  0.0105
    1W        W46222  17.746  18.783   5.595  0.1663  0.0896 -0.4064
    1W        W46223   6.641  22.644   0.424  0.1360  0.0640  0.0919
    1W        W46224   6.795   7.030   3.393 -0.0866  0.0608 -0.0115
    1W        W46225  21.353   4.311   1.873 -0.0654 -0.2905 -0.0809
    1W        W46226   9.704  12.081   1.050  0.0453 -0.0788 -0.1235
    1W        W46227   9.363  14.693   7.241 -0.2382  0.0559 -0.1173
    1W        W46228  10.529  13.089   6.649  0.0853 -0.1271  0.1563
    1W        W46229  22.398   7.479   7.634 -0.0592  0.2695  0.3063
    1W        W46230  28.622   0.586   0.741 -0.0322 -0.2464 -0.1036
    1W        W46231   3.438  27.514   7.402 -0.1252 -0.2103 -0.0268
    1W        W46232   5.525   3.358   1.376 -0.0906 -0.1324 -0.3062
    1W        W46233  26.121  13.344   0.732 -0.1580  0.1097  0.1409
    1W        W46234  20.832  18.374   8.980 -0.0488 -0.0157 -0.1132
    1W        W46235   7.835   1.441   7.502 -0.3781  0.3795 -0.1553
    1W        W46236  24.494  29.683   1.291 -0.3788  0.3098 -0.0946
    1W        W46237  22.538  19.496   1.167  0.1976  0.2116  0.1638
    1W        W46238   1.453   6.125   9.342 -0.3214  0.1316  0.2031
    1W        W46239  14.153   9.992   0.175  0.1515  0.0486  0.2212
    1W        W46240  19.890  24.962   6.863 -0.0001  0.0950 -0.0182
    1W        W46241  25.360  15.244   1.604 -0.3682  0.0018 -0.2740
    1W        W46242   5.619  17.889   1.827 -0.2622 -0.2363  0.1889
    1W        W46243   5.080  25.782   9.245 -0.2595 -0.2650 -0.0561
    1W        W46244  14.612   2.723   1.993 -0.3004  0.2331 -0.1618
    1W        W46245   3.596  19.493   1.351 -0.3195  0.1278 -0.0216
    1W        W46246  11.808  28.188   0.215  0.2910  0.2831  0.0374
    1W        W46247   9.806  12.416   9.398 -0.0412 -0.1329  0.1619
    1W        W46248   3.907  18.814   7.455 -0.0901 -0.0404 -0.1635
    1W        W46249  25.358  23.008   8.006 -0.0710  0.2616  0.2650
    1W        W46250  20.797   4.102   9.525 -0.1635 -0.1471 -0.3064
    1W        W46251  12.360   9.600   2.815 -0.2336  0.0573  0.2488
    1W        W46252  27.793   6.580   1.858 -0.1717  0.4818  0.0678
    1W        W46253  19.383  13.945   7.881  0.2938 -0.0002  0.1240
    1W        W46254   3.132  22.846   7.943 -0.0272 -0.1041 -0.0649
    1W        W46255   7.486  24.154   7.586  0.3293  0.2363  0.0921
    1W        W46256  13.216  17.276   7.369 -0.0954  0.4950 -0.1127
    1W        W46257   3.436  29.301   8.515 -0.3076  0.1523 -0.1641
    1W        W46258  28.403  28.234   6.776 -0.1810 -0.1370  0.1515
    1W        W46259  25.297  21.785   9.313 -0.2267  0.0478  0.0200
    1W        W46260   4.437   1.170   5.792 -0.0785 -0.3126  0.0263
    1W        W46261  20.726   9.107   7.949  0.0864 -0.2655 -0.0289
    1W        W46262  17.038  24.809   8.532  0.1817 -0.0352  0.0802
    1W        W46263   5.582  13.172   0.055  0.1225  0.1515 -0.0811
    1W        W46264   4.103   6.235   2.714 -0.1377 -0.0750 -0.0590
    1W        W46265   2.785  18.903   2.539 -0.0753  0.1801 -0.0706
    1W        W46266  25.206   4.820   6.962 -0.0189  0.1292 -0.3582
    1W        W46267   5.162  15.323   6.373 -0.0363 -0.0594  0.0988
    1W        W46268  13.843  29.533   8.926 -0.0860  0.1871 -0.0598
    1W        W46269  20.058  27.415   7.615  0.0047 -0.0786 -0.0902
    1W        W46270  20.899  22.942   0.224  0.1908 -0.2940  0.0824
    1W        W46271   9.239   4.408   1.771 -0.0177  0.2359  0.1354
    1W        W46272   4.359  10.398   8.768  0.1948  0.1705  0.1885
    1W        W46273   3.501  21.219   8.670 -0.1472  0.2571  0.1688
    1W        W46274  26.489  22.365   2.741 -0.1376 -0.1136  0.1362
    1W        W46275  29.211  14.968   8.801 -0.2204 -0.0954 -0.3573
    1W        W46276   5.133  22.247   7.231 -0.1308 -0.1722 -0.0942
    1W        W46277   2.840  16.949   2.043 -0.0740 -0.1462  0.1650
    1W        W46278  19.402   8.137   9.319  0.0517 -0.2499 -0.0080
    1W        W46279  14.877  15.769   6.344 -0.0292  0.0836 -0.0713
    1W        W46280   0.714  23.425   7.857  0.3242 -0.1146  0.3853
    1W        W46281   4.466  20.806   1.190  0.0890  0.1208  0.0469
    1W        W46282  22.171  13.358   0.328 -0.0555  0.0103  0.0344
    1W        W46283  17.609  10.024   1.032  0.2062 -0.0878 -0.0315
    1W        W46284   8.956  17.305   7.934 -0.1420 -0.2303 -0.2777
    1W        W46285  24.724   2.800   1.277 -0.2405  0.1226 -0.0279
    1W        W46286  25.032   9.797   2.971 -0.0530 -0.1826 -0.0756
    1W        W46287  12.217   8.197   2.930  0.3278 -0.0731 -0.1621
    1W        W46288  22.368   3.744   7.629  0.1217  0.0743  0.0562
    1W        W46289  14.071  17.031   0.519 -0.0177 -0.2368  0.1524
    1W        W46290   8.965  20.090   7.904 -0.2522  0.2018 -0.1195
    1W        W46291   9.102  22.664   2.381  0.0168 -0.0357 -0.2216
    1W        W46292   1.065  20.167   6.854 -0.1416 -0.1214 -0.3837
    1W        W46293   6.460   2.475   2.426  0.0599  0.0052  0.0949
    1W        W46294  23.143   7.394   7.497  0.1428 -0.0736  0.3405
    1W        W46295  18.072  14.859   8.412 -0.0080  0.0024  0.0857
    1W        W46296  14.067  25.546   0.557  0.4324 -0.2617  0.2164
    1W        W46297  21.230  26.635   2.340 -0.2998 -0.0103 -0.5228
    1W        W46298  27.620  28.705   6.560  0.0065  0.0418 -0.0653
    1W        W46299  26.284   0.750   8.185 -0.1023  0.0522 -0.1264
    1W        W46300  27.148   6.524   0.546  0.0076 -0.0493 -0.1770
    1W        W46301  24.508  14.416   8.201 -0.3357  0.0962  0.0660
    1W        W46302  24.843  13.363   1.023  0.2048  0.6079 -0.2217
    1W        W46303  18.162   4.790   4.197  0.1629  0.0227 -0.1160
    1W        W46304  12.978  24.681   0.445  0.0183  0.0717  0.0983
    1W        W46305  24.989  27.541   3.140 -0.0430  0.1590  0.0078
    1W        W46306   4.081  11.573   7.872 -0.3207  0.0533  0.0383
    1W        W46307  12.967   4.361   0.199  0.3568  0.2910 -0.1950
    1W        W46308   6.911  12.473   0.189  0.1879 -0.1834 -0.1417
    1W        W46309  13.947   6.602   2.767  0.0416  0.2304  0.0211
    1W        W46310  27.873   1.159   0.229  0.1227  0.2400  0.2725
    1W        W46311  18.836   8.937   1.451 -0.0252  0.1119  0.1386
    1W        W46312  14.053  22.286   7.240  0.0407  0.0374 -0.1903
    1W        W46313   5.350  28.247   6.986 -0.0163 -0.3525 -0.3211
    1W        W46314   6.049  25.044   7.232  0.1419  0.2363  0.0477
    1W        W46315   2.544   7.430   6.861  0.4518  0.1439 -0.1315
    1W        W46316  12.080  24.890   8.114 -0.0399 -0.0535  0.0075
    1W        W46317   4.121  20.798   2.537 -0.1725  0.1410  0.0705
    1W        W46318  14.754   9.026   1.555 -0.1175  0.3656 -0.2257
    1W        W46319  10.584  17.027   7.293  0.1748 -0.0504  0.0361
    1W        W46320   9.981  18.563   1.563  0.2118  0.0791 -0.1747
    1W        W46321  27.206  29.500   2.086  0.0759  0.1577  0.1152
    1W        W46322   9.205   6.400   1.647  0.0198 -0.0101  0.0902
    1W        W46323   1.208  18.706   6.936 -0.0818  0.1881  0.0701
    1W        W46324   7.485  14.020   9.356 -0.1068 -0.3159  0.0417
    1W        W46325  22.123   3.374   0.439 -0.2000 -0.1110  0.0895
    1W        W46326   7.958   5.328   9.106  0.1818  0.0616  0.0605
    1W        W46327  24.449  13.309   1.351 -0.0933  0.0302  0.0464
    1W        W46328   1.082  26.947   0.572 -0.0164 -0.0765 -0.3283
    1W        W46329   7.635   8.633   1.966 -0.2997  0.3400  0.1651
    1W        W46330  12.102  15.243   8.111 -0.0953 -0.3150 -0.0068
    1W        W46331   4.772  12.905   8.102  0.1018  0.1918 -0.3174
    1W        W46332  21.231  27.005   7.014  0.0499  0.2270 -0.0725
    1W        W46333  15.100   3.336   0.609 -0.2056  0.1364  0.2873
    1W        W46334  14.751  28.626   0.471 -0.2636 -0.2445  0.2141
    1W        W46335   7.441  24.876   2.245 -0.2240 -0.0767 -0.1509
    1W        W46336  29.455  20.544   1.961 -0.1913  0.2033  0.2213
    1W        W46337   9.733  28.375   0.564 -0.1540  0.3894  0.2480
    1W        W46338  17.142   9.574   9.043 -0.1473 -0.3717 -0.3277
    1W        W46339   2.348   2.961   7.645  0.0237 -0.3814 -0.0265
    1W        W46340   8.189   0.781   6.995 -0.1096  0.3032 -0.0058
    1W        W46341   2.831  11.346   9.219  0.2214  0.1256 -0.3542
    1W        W46342  28.422   5.387   8.364 -0.1171 -0.0243  0.1641
    1W        W46343  16.186   2.613   3.828  0.3739 -0.0473  0.2023
    1W        W46344  14.160   5.979   8.221  0.2123  0.3047 -0.1523
    1W        W46345  29.089  20.069   7.825  0.0256  0.3569 -0.2269
    1W        W46346  24.225   8.385   1.818 -0.1764 -0.3301 -0.1879
    1W        W46347  13.890   3.852   8.796 -0.0176  0.0700 -0.0552
    1W        W46348   5.662  14.087   9.305 -0.1186 -0.1183  0.1883
    1W        W46349   7.588  23.363   9.128  0.2588 -0.0522  0.0014
    1W        W46350  10.426  17.229   6.482  0.0511  0.0359 -0.0293
    1W        W46351   3.774  18.070   8.161  0.2204 -0.2686  0.1772
    1W        W46352  18.189   1.420   2.890 -0.0922 -0.1642  0.3141
    1W        W46353  19.693  18.108   9.095  0.2602 -0.0877 -0.2378
    1W        W46354   4.992  16.486   0.415  0.0726  0.2843 -0.0278
    1W        W46355  13.933  26.552   8.411 -0.2049  0.0995 -0.0236
    1W        W46356  24.015  29.434   7.441  0.0223  0.0436 -0.0126
    1W        W46357  19.165  18.945   7.722 -0.1647 -0.2233 -0.1653
    1W        W46358  27.851   1.603   7.432 -0.1408  0.1110 -0.0823
    1W        W46359  16.704   9.575   1.093 -0.2161 -0.3829 -0.1155
    1W        W46360  18.198   2.095   4.499  0.1752  0.0277  0.0564
    1W        W46361  10.622  10.964   0.851  0.0774 -0.0065 -0.0164
    1W        W46362  13.509  29.754   8.260 -0.2051  0.0663 -0.2568
    1W        W46363  14.468  25.400   8.469  0.1274 -0.1814 -0.1277
    1W        W46364   9.861  10.175   7.479 -0.1118  0.0857  0.0107
    1W        W46365  14.534  22.824   8.484  0.1299 -0.0927  0.0960
    1W        W46366  19.590   0.376   8.244 -0.1215  0.0882 -0.0223
    1W        W46367  23.566  11.636   0.612 -0.1584  0.0396 -0.1723
    1W        W46368  12.011  20.058   8.005  0.2161 -0.0172  0.3617
    1W        W46369  26.591  23.228   7.512 -0.1893 -0.0594  0.1259
    1W        W46370  29.857  20.454   8.066 -0.1453 -0.0186  0.0233
    1W        W46371  10.362  15.555   1.556 -0.1679  0.0728  0.3872
    1W        W46372   3.629  15.379   9.270 -0.1887 -0.2757 -0.3786
    1W        W46373   3.120  10.463   2.650  0.3283  0.0409 -0.1573
    1W        W46374   5.819   0.570   1.199  0.1938  0.0576  0.0914
    1W        W46375  10.704   4.799   2.749 -0.0814  0.0528 -0.0135
    1W        W46376  17.178  10.551   0.891 -0.1071  0.0353 -0.0206
    1W        W46377  24.311   2.724   8.457  0.0257 -0.0995  0.1333
    1W        W46378  23.617   5.828   7.506 -0.0214  0.0240 -0.1006
    1W        W46379   3.572  20.427   9.486  0.3127  0.0211 -0.0782
    1W        W46380  29.483  14.271   1.474  0.4255  0.2517 -0.1410
    1W        W46381  17.871   2.619   0.556 -0.1030  0.1891 -0.3077
    1W        W46382   3.681  10.752   6.527 -0.1015 -0.2237  0.0844
    1W        W46383  26.292  14.856   8.916 -0.4030 -0.1107 -0.2461
    1W        W46384   5.047  18.555   1.679 -0.0603  0.0359  0.0535
    1W        W46385  11.738  20.262   1.279  0.2315  0.0747  0.3569
    1W        W46386   4.365   7.470   8.379  0.2294 -0.0829  0.1707
    1W        W46387  12.386  28.855   1.937  0.1821  0.0014  0.1127
    1W        W46388  10.133   7.761   7.936 -0.0975 -0.1405  0.3216
    1W        W46389  21.959  11.272   0.348 -0.2770 -0.0392  0.2170
    1W        W46390  21.234  24.347   1.309 -0.1332  0.1260  0.2360
    1W        W46391  13.327   0.765   1.341 -0.1412  0.0392  0.2735
    1W        W46392   9.133  27.130   9.192 -0.2345 -0.1225 -0.1691
    1W        W46393  27.075  11.345   8.032 -0.0256  0.0458 -0.1370
    1W        W46394   1.358   6.816   3.170  0.1432  0.0267  0.1046
    1W        W46395  27.524  22.733   0.671 -0.0525 -0.2199 -0.1837
    1W        W46396  10.623  14.647   1.522  0.1161 -0.1692  0.1105
    1W        W46397  13.768   5.024   3.875 -0.0621  0.0354  0.0223
    1W        W46398  14.719  23.524   8.451 -0.0403  0.2375  0.0185
    1W        W46399  11.260  12.511   7.825 -0.1712  0.2006  0.1989
    1W        W46400  29.664  22.684   1.834  0.3534 -0.0289 -0.0681
    1W        W46401  14.988   5.149   9.466  0.0735 -0.1490  0.0653
    1W        W46402  28.245   7.993   0.050 -0.2616 -0.1906 -0.0612
    1W        W46403  27.109   2.299   0.310  0.1862 -0.1976 -0.1193
    1W        W46404  24.586  19.338   8.934 -0.3872 -0.1181 -0.4223
    1W        W46405   9.311  18.394   2.125  0.3494  0.1002  0.1443
    1W        W46406  25.855  12.559   8.383 -0.2199 -0.2006  0.3811
    1W        W46407  12.867  13.059   1.386 -0.1931  0.2148 -0.3546
    1W        W46408   9.154  22.671   1.367  0.0244 -0.0037 -0.0487
    1W        W46409  21.945  26.060   9.348 -0.0012  0.2132  0.0558
    1W        W46410  29.093  15.245   7.487 -0.0845 -0.2128 -0.0136
    1W        W46411   7.461  15.513   9.509  0.0312  0.0685 -0.0141
    1W        W46412   2.673  10.083   1.892 -0.2267 -0.0373  0.1693
    1W        W46413  25.927  28.467   9.518 -0.0141  0.1577  0.2482
    1W        W46414   1.495  23.456   9.322  0.1474 -0.0754  0.0746
    1W        W46415   1.708   7.106   7.379  0.1969 -0.0771  0.1218
    1W        W46416  10.828  12.264   2.601 -0.0320 -0.1929 -0.1112
    1W        W46417  11.384   4.510   7.705  0.0350 -0.1689 -0.0942
    1W        W46418  17.882   2.938   3.894 -0.0149 -0.3227  0.0601
    1W        W46419  12.833  17.113   1.499 -0.0378  0.1897 -0.0580
    1W        W46420  15.637  13.328   6.961  0.0063 -0.0586  0.0310
    1W        W46421  18.003  13.266   8.992  0.2984 -0.1484 -0.0678
    1W        W46422   2.960  29.605   6.524 -0.2520  0.1097  0.0326
    1W        W46423  28.880  24.662   7.325  0.2524  0.1346 -0.2305
    1W        W46424  17.178   1.085   2.774 -0.0374  0.0812 -0.0310
    1W        W46425  23.324  19.204   1.381  0.1769  0.0201 -0.0275
    1W        W46426   8.244  23.495   0.223 -0.2221  0.0060  0.1302
    1W        W46427   5.868  17.859   9.244  0.1880  0.2028 -0.3862
    1W        W46428  24.994  21.440   2.317 -0.3105 -0.1780  0.2210
    1W        W46429  25.951  14.753   9.327 -0.0575  0.0285 -0.0575
    1W        W46430  10.342   5.255   8.038  0.1087 -0.0546  0.1168
    1W        W46431  21.301  28.005   1.319  0.2291 -0.0485  0.3387
    1W        W46432  12.459   2.295   1.815 -0.0193  0.0215 -0.1427
    1W        W46433   6.168  21.710   9.423  0.1519  0.1746 -0.2289
    1W        W46434   4.485   6.678   7.560  0.2224 -0.1223 -0.1733
    1W        W46435   1.910  28.540   8.163  0.1234  0.0347  0.2957
    1W        W46436  24.973  18.738   7.363  0.0963  0.4174 -0.0824
    1W        W46437  18.873  11.812   0.639  0.0960 -0.1021 -0.1149
    1W        W46438   6.660  14.330   6.804 -0.0599 -0.0473 -0.1175
    1W        W46439  27.877  17.621   9.172 -0.1825  0.1601  0.1006
    1W        W46440   5.091  18.044   1.776 -0.1446  0.1701  0.0594
    1W        W46441  24.311  12.906   2.305  0.1174 -0.1415  0.2705
    1W        W46442  20.479  22.058   6.288 -0.1532  0.4308 -0.1061
    1W        W46443  24.697  26.094   8.864 -0.2029  0.1971  0.2476
    1W        W46444  15.847   3.316   8.198 -0.1082 -0.0010  0.2697
    1W        W46445  15.437  16.677   0.299 -0.2461 -0.1737  0.4139
    1W        W46446   9.299  22.303   8.496 -0.1018 -0.0902 -0.2893
    1W        W46447  23.017  14.835   1.660 -0.0644 -0.1608 -0.1295
    1W        W46448   1.775   6.399   1.020 -0.0887 -0.2807  0.2896
    1W        W46449  14.169  25.793   1.075  0.1385 -0.2478 -0.1585
    1W        W46450  10.267  21.332   6.892  0.0873  0.0168  0.0537
    1W        W46451  22.627  17.851   8.663 -0.1981  0.0596  0.1072
    1W        W46452   1.039  12.187   7.469  0.1317  0.2506  0.3383
    1W        W46453   7.490   1.950   1.604 -0.2482  0.0738  0.1254
    1W        W46454   1.596  15.737   1.308  0.1020  0.0905  0.1707
    1W        W46455   8.192   9.473   7.867 -0.0395 -0.1877  0.1070
    1W        W46456   1.341   8.913   1.701  0.3245  0.1575 -0.1405
    1W        W46457  24.750  12.527   0.006  0.1710  0.1730  0.0737
    1W        W46458  27.373  22.604   1.191 -0.0233  0.1689  0.1991
    1W        W46459   7.101  27.598   9.193  0.0730 -0.0655  0.2979
    1W        W46460  10.828  25.227   6.754  0.1900 -0.3560 -0.0207
    1W        W46461  22.174  28.372   8.377  0.1788 -0.1483  0.1904
    1W        W46462   2.565  12.817   6.065 -0.0612  0.2622  0.1604
    1W        W46463  21.869   8.303   9.132 -0.1614  0.1865 -0.1186
    1W        W46464   4.016  29.228   8.594  0.1408  0.0119  0.0640
    1W        W46465  11.978  18.022   2.966  0.1584 -0.0525  0.0477
    1W        W46466  12.554  13.951   0.428  0.2266 -0.0679  0.2420
    1W        W46467   3.808  21.972   1.978 -0.4239 -0.1062 -0.0590
    1W        W46468  23.970   7.551   2.456 -0.0314  0.4039 -0.2028
    1W        W46469  12.595   5.123   2.676 -0.0403  0.1616  0.0175
    1W        W46470  24.854  11.876   8.953 -0.0193  0.2931  0.2890
    1W        W46471  28.709   6.225   6.624  0.1401 -0.0452  0.2750
    1W        W46472   9.261   3.994   2.779 -0.1242  0.1596 -0.1037
    1W        W46473  14.314  16.727   8.367  0.0643  0.0870  0.0535
    1W        W46474  15.317   6.940   2.350 -0.2458 -0.1615  0.1333
    1W        W46475  19.989  27.241   8.141 -0.1077 -0.2206 -0.1211
    1W        W46476   7.365   2.736   8.204  0.1614 -0.1674 -0.0130
    1W        W46477  24.564  21.630   2.060 -0.1002  0.2258 -0.0651
    1W        W46478   5.949  21.723   6.685  0.5384  0.4300  0.0666
    1W        W46479  11.355  13.929   0.280 -0.3365 -0.1085  0.2554
    1W        W46480  19.751  10.564   2.510  0.1703  0.2233 -0.1813
    1W        W46481   3.451  28.771   7.500 -0.4329 -0.0299  0.0259
    1W        W46482   0.247  15.421   1.994 -0.4219  0.1782  0.3970
    1W        W46483  25.019  10.729   0.633 -0.1505  0.3262  0.0002
    1W        W46484  24.025  16.231   9.044  0.0808  0.0901  0.3251
    1W        W46485   7.981  26.612   0.771 -0.2522 -0.1746  0.1944
    1W        W46486   8.668  15.630   7.111 -0.0693  0.3121 -0.1193
    1W        W46487  18.311   4.111   2.023  0.0908 -0.3380 -0.1840
    1W        W46488   0.833  11.326   1.150  0.4708 -0.0390 -0.0738
    1W        W46489   4.785  20.009   1.066 -0.3400 -0.1186 -0.1323
    1W        W46490  12.214  16.639   1.767 -0.1102  0.0367 -0.0615
    1W        W46491  28.031  28.765   3.077  0.2669  0.1177  0.1948
    1W        W46492  13.822  26.408   1.117 -0.1862  0.1891 -0.1202
    1W        W46493   2.503  26.034   5.697 -0.0675  0.1721  0.5086
    1W        W46494  19.268  12.834   8.688  0.2176 -0.1211  0.2611
    1W        W46495   1.634  12.507   1.303  0.1415 -0.0675 -0.0744
    1W        W46496   5.410   4.391   2.765  0.2044 -0.0376  0.2666
    1W        W46497  16.023  26.903   9.188 -0.1797 -0.0458 -0.0463
    1W        W46498  21.384   8.376   2.678  0.0585 -0.1010 -0.4996
    1W        W46499  26.966   7.453   8.321 -0.2549  0.2186 -0.0500
    1W        W46500  25.795  26.281   6.410 -0.1725  0.0239 -0.1894
    1W        W46501  25.296   4.314   8.661  0.3207 -0.0522  0.2033
    1W        W46502   1.361  14.496   8.092  0.2059 -0.1807 -0.0249
    1W        W46503  29.832   1.091   7.253  0.0575 -0.1347 -0.1251
    1W        W46504   9.362   4.934   2.229  0.3711  0.0881  0.0536
    1W        W46505  16.545   4.708   2.123  0.2675  0.1071 -0.2971
    1W        W46506  19.399  15.936   7.268  0.0476  0.1085 -0.2543
    1W        W46507  10.073   3.487   0.913 -0.4031 -0.3932  0.1205
    1W        W46508  14.379   8.559   0.379 -0.0924  0.1850 -0.0772
    1W        W46509  12.933  25.455   7.094 -0.0184 -0.0830  0.2339
    1W        W46510  10.340  23.654   2.213 -0.2329  0.1377 -0.1586
    1W        W46511  14.997  22.390   8.852  0.0049  0.1712  0.1875
    1W        W46512   5.746  24.782   6.147  0.1247  0.0755  0.2632
    1W        W46513   5.068  21.969   7.773  0.1155  0.1451 -0.0438
    1W        W46514  26.619  14.323   8.751  0.0242  0.0571  0.3455
    1W        W46515   7.998   0.435   6.729 -0.0412 -0.0273  0.0442
    1W        W46516  11.840  24.423   7.751  0.0456  0.0331  0.0380
    1W        W46517  12.376  28.401   7.066 -0.1535  0.0617 -0.2904
    1W        W46518  23.955   0.365   1.922  0.0458  0.0674  0.0769
    1W        W46519  19.641   4.703   8.560 -0.1009  0.0727 -0.3456
    1W        W46520   3.106  16.523   7.714  0.0855 -0.0237 -0.2208
    1W        W46521  28.479  23.323   7.540 -0.2120  0.0280 -0.0680
    1W        W46522  27.000   2.436   9.170 -0.0018  0.1469  0.0489
    1W        W46523  29.080   6.742   7.359 -0.1768 -0.1704  0.1190
    1W        W46524  16.870   0.124   1.900 -0.0630 -0.2090 -0.0645
    1W        W46525  23.129   8.725   8.174 -0.0912 -0.1129  0.0650
    1W        W46526  24.651  24.402   9.051 -0.1439 -0.1536  0.2236
    1W        W46527  22.933  10.787   8.329 -0.0196 -0.0709  0.2777
    1W        W46528   2.537  23.246   0.571 -0.0851  0.0508 -0.3476
    1W        W46529   3.540  15.830   1.945 -0.1862  0.0339 -0.0858
    1W        W46530  29.348  25.809   1.501 -0.3589  0.0393 -0.0142
    1W        W46531  26.096  25.903   8.906 -0.1838  0.0899  0.1039
    1W        W46532  29.398  12.887   1.569 -0.1002  0.2160  0.2559
    1W        W46533   5.096  23.291   8.764 -0.1597 -0.0832  0.0366
    1W        W46534  12.867  15.316   2.194 -0.0212  0.0189  0.0479
    1W        W46535  14.566   6.724   2.202 -0.0688  0.2542  0.2048
    1W        W46536   8.461   7.666   6.624 -0.1070 -0.0499 -0.0430
    1W        W46537   8.591  15.293   0.669  0.0021 -0.0535 -0.0672
    1W        W46538  25.955  14.615   1.614  0.1792  0.0156 -0.0250
    1W        W46539  20.851  27.643   1.351  0.2431 -0.0109  0.1356
    1W        W46540  14.651   3.518   0.809  0.1341 -0.3434  0.3613
    1W        W46541  10.654  13.410   8.623 -0.0334  0.0867  0.1955
    1W        W46542  27.177   5.834   2.865 -0.1238  0.1749  0.2081
    1W        W46543  27.628  19.904   1.336 -0.4096 -0.2098 -0.0139
    1W        W46544   7.803  26.130   0.622  0.0542  0.2329  0.1811
    1W        W46545  19.938   8.812   0.978 -0.2060  0.2163 -0.0966
    1W        W46546  24.497  19.408   7.643 -0.0048 -0.3512  0.2710
    1W        W46547  18.492  11.190   1.893 -0.1972 -0.0908 -0.2212
    1W        W46548   2.273  29.558   7.965  0.1073  0.1123  0.0437
    1W        W46549   9.394   5.809   2.663 -0.0458  0.3758  0.0744
    1W        W46550  14.440  27.862   2.290  0.2783  0.0630  0.1633
    1W        W46551  20.401  28.878   8.876  0.0219 -0.1265  0.1072
    1W        W46552  25.135  25.057   7.146  0.0702 -0.2513  0.3729
    1W        W46553  20.510  12.501   6.982  0.2033  0.0105 -0.2339
    1W        W46554  22.486  17.271   8.437  0.1797 -0.2420 -0.2412
    1W        W46555  21.801   2.276   8.034  0.1562 -0.3814 -0.2848
    1W        W46556  26.223   4.690   1.700  0.1080 -0.0589  0.0912
    1W        W46557  29.531   7.197   0.986  0.0767  0.3956  0.1921
    1W        W46558  12.549  21.174   1.212  0.4179 -0.0266  0.1270
    1W        W46559   1.181   7.226   1.237 -0.2379 -0.0607  0.0277
    1W        W46560   0.413  17.450   1.210 -0.0391 -0.2015 -0.0044
    1W        W46561  14.667  11.310   1.211  0.3227 -0.0529 -0.1701
    1W        W46562   8.189  22.643   6.429 -0.1238  0.1427 -0.1399
    1W        W46563  22.259   4.949   8.933 -0.0891  0.0370 -0.0186
    1W        W46564   0.976   6.259   9.349  0.1336  0.1999  0.3596
    1W        W46565  16.991  29.830   1.131  0.1633 -0.0634 -0.2659
    1W        W46566  28.760   4.185   6.633 -0.1927  0.1336  0.0821
    1W        W46567  29.695   7.370   0.128 -0.2509  0.3075 -0.0352
    1W        W46568   2.543   2.857   0.576  0.2713  0.0305  0.0962
    1W        W46569  18.488   5.484   1.516 -0.2104 -0.0822  0.0384
    1W        W46570  24.647  13.686   0.637  0.0729 -0.2116  0.2690
    1W        W46571  15.902   2.871   8.375  0.0735  0.0697  0.2244
    1W        W46572   2.695  26.548   8.343 -0.1268 -0.4236 -0.0689
    1W        W46573   1.129  13.622   1.898 -0.1934 -0.2821  0.1693
    1W        W46574  24.494  23.644   1.037 -0.0970 -0.1282  0.1677
    1W        W46575  28.032  28.473   1.227  0.1994  0.1252 -0.2724
    1W        W46576  25.738   6.386   8.611  0.1119 -0.2563  0.2379
    1W        W46577  18.090  20.230   8.996 -0.2387 -0.0089  0.1314
    1W        W46578  15.543  21.141   0.267 -0.1415 -0.3835 -0.0141
    1W        W46579   6.798   8.236   0.214 -0.1657 -0.1209 -0.0013
    1W        W46580  29.565  16.497   1.007 -0.0937 -0.2051  0.2502
    1W        W46581  12.917  25.064   7.715  0.2483 -0.1465 -0.1321
    1W        W46582  24.058   0.412   8.709 -0.2169  0.0135 -0.2268
    1W        W46583  19.035  21.453   9.452  0.0310 -0.0294 -0.1704
    1W        W46584   3.096  20.072   0.999 -0.0340  0.2339  0.2877
    1W        W46585  28.448  21.414   7.803 -0.1707  0.4301 -0.3262
    1W        W46586  24.100   1.724   2.949  0.0075  0.0532  0.0203
    1W        W46587  20.220   2.324   0.635 -0.1665  0.3515 -0.1534
    1W        W46588   8.616  27.268   9.000 -0.0140  0.3219 -0.1889
    1W        W46589   8.464  18.818   5.831 -0.0255  0.4093 -0.0319
    1W        W46590  14.870  23.554   0.029 -0.2998  0.1772 -0.4029
    1W        W46591  24.360  26.948   2.469  0.2269  0.1096 -0.1261
    1W        W46592   7.460   2.162   1.073 -0.2441  0.1713  0.0603
    1W        W46593  27.190  10.136   9.178 -0.0498  0.1759 -0.3892
    1W        W46594   3.777   7.796   6.843 -0.0756  0.2291 -0.1900
    1W        W46595  23.178  26.840   0.004 -0.0843  0.0015  0.1627
    1W        W46596  20.240  23.539   7.269  0.0190 -0.2484  0.2609
    1W        W46597   3.848  15.164   5.960 -0.0880 -0.2258  0.1292
    1W        W46598  29.724   3.352   1.309  0.0582  0.1825 -0.3032
    1W        W46599   7.188  22.382   8.368 -0.1370  0.1826 -0.0374
    1W        W46600   9.411   0.048   2.000  0.0388  0.3535  0.2313
    1W        W46601  29.054  17.625   8.393 -0.1274 -0.0574  0.2114
    1W        W46602  18.301  28.143   2.308 -0.0535 -0.3084  0.0105
    1W        W46603   8.811  15.914   2.838 -0.0381 -0.0235 -0.2350
    1W        W46604  29.618  17.896   7.623  0.1610  0.2672 -0.2108
    1W        W46605   3.470   9.780   6.931 -0.1646  0.0359 -0.2449
    1W        W46606   2.167  16.766   7.191 -0.0327 -0.0976  0.1047
    1W        W46607  22.335  29.142   1.429  0.0814  0.4611 -0.1711
    1W        W46608   4.310   7.990   1.373 -0.4288 -0.2589  0.2378
    1W        W46609   2.564   6.593   2.531 -0.1271 -0.0225 -0.3049
    1W        W46610  11.261  28.348   0.259  0.1400 -0.1229  0.2811
    1W        W46611   6.252  20.748   8.883  0.0487  0.3657  0.1073
    1W        W46612   2.640  26.568   5.805 -0.2867  0.1152  0.3507
    1W        W46613  14.159  10.513   0.765 -0.0556  0.3360  0.1749
    1W        W46614  11.909  13.699   9.176  0.0165  0.1469  0.1001
    1W        W46615  13.731  28.837   3.094  0.1126  0.0862 -0.0342
    1W        W46616  27.227  13.186   0.653 -0.1977  0.1503 -0.3566
    1W        W46617  24.790   2.123   2.962 -0.1569  0.0280  0.3056
    1W        W46618  19.805  15.586   6.317  0.3421 -0.1741  0.1784
    1W        W46619  12.035  15.482   1.655  0.0824 -0.0451 -0.0933
    1W        W46620  29.687  24.909   6.217 -0.1252  0.0473 -0.1076
    1W        W46621  25.284  26.502   2.616  0.0391  0.0309 -0.1036
    1W        W46622  27.709   3.916   7.084  0.0426  0.2284 -0.3957
    1W        W46623  18.845  29.338   1.957 -0.0094 -0.0247  0.0856
    1W        W46624  15.732  17.088   7.160 -0.3495 -0.0364 -0.0787
    1W        W46625  15.692  15.897   6.484 -0.0025 -0.0704  0.1240
    1W        W46626  11.894  14.154   1.957  0.2148 -0.0549  0.2158
    1W        W46627  29.105  16.651   0.722  0.2348  0.0763  0.0552
    1W        W46628  20.888  18.932   7.346 -0.1787 -0.1607 -0.2010
    1W        W46629  11.317  26.853   0.458 -0.0560  0.0226 -0.1902
    1W        W46630  25.153   1.819   9.141  0.0550 -0.1606 -0.1232
    1W        W46631  12.680  23.473   0.795 -0.0287 -0.0012  0.1096
    1W        W46632  21.245   1.048   8.757 -0.1695  0.1685  0.0696
    1W        W46633  26.621  19.689   9.361 -0.1125  0.1180  0.2049
    1W        W46634  11.841  14.448   1.484 -0.0261 -0.1835  0.0034
    1W        W46635   8.975  23.776   0.480 -0.0329  0.0174 -0.1620
    1W        W46636  18.539  23.356   0.295 -0.1474  0.0422  0.2332
    1W        W46637  28.215  22.651   7.655 -0.1433  0.2541  0.1429
    1W        W46638   8.562  27.839   5.935  0.1788 -0.0060 -0.0231
    1W        W46639  12.427   5.362   1.840  0.2145 -0.0083  0.0422
    1W        W46640  13.662  14.050   8.935 -0.2591  0.4264 -0.1416
    1W        W46641   9.754  13.810   8.529  0.0214 -0.1661 -0.1082
    1W        W46642  11.155  24.091   8.447  0.2844 -0.0970 -0.0170
    1W        W46643  24.476  17.527   8.821 -0.0333  0.2150 -0.1464
    1W        W46644  11.546  15.475   1.554  0.1459 -0.3234 -0.1232
    1W        W46645  21.900  16.112   0.935  0.2564 -0.0074 -0.0841
    1W        W46646  19.362  15.760   6.281  0.1332 -0.1669 -0.1435
    1W        W46647  28.672  19.979   7.556  0.0361  0.0801 -0.1805
    1W        W46648  25.763  21.202   7.439  0.2670 -0.0204 -0.2624
    1W        W46649  21.106  13.069   6.795 -0.3820  0.0518  0.0827
    1W        W46650   7.406  21.024   6.413 -0.0164  0.2055  0.2758
    1W        W46651  11.662   3.496   7.650 -0.0260 -0.2510  0.2596
    1W        W46652  20.043  24.741   8.657  0.4380 -0.0072 -0.3248
    1W        W46653  21.178  17.224   7.658 -0.1393 -0.0349  0.1012
    1W        W46654  11.031  19.910   0.904 -0.0162 -0.2015  0.1493
    1W        W46655  14.797   0.445   3.613  0.0203 -0.1103  0.3060
    1W        W46656   8.687   3.823   8.033  0.0751  0.0578  0.0333
    1W        W46657   1.392   0.666   2.561 -0.2866  0.1307  0.0054
    1W        W46658   6.117   2.365   6.519 -0.1411 -0.2114  0.0488
    1W        W46659  14.001  13.779   8.642 -0.1739  0.0540 -0.0611
    1W        W46660  11.243  23.896   7.927 -0.0868 -0.2986 -0.2389
    1W        W46661  26.852   1.632   8.382 -0.0776  0.0445  0.3868
    1W        W46662  14.364  28.826   2.562 -0.2014 -0.1592  0.0802
    1W        W46663   7.711  20.018   1.419  0.0694 -0.1349  0.0040
    1W        W46664   9.026   7.097   7.880  0.0381 -0.0354  0.3473
    1W        W46665   2.382  27.137   7.780 -0.1690 -0.2978 -0.1647
    1W        W46666  14.497  14.458   0.774  0.0245  0.0299 -0.3393
    1W        W46667   8.723  22.987   6.939  0.0645 -0.0490  0.2106
    1W        W46668  18.177   2.706   0.920  0.2648  0.0205 -0.0388
    1W        W46669  10.612  13.309   0.673 -0.0225  0.1440 -0.1907
    1W        W46670  19.514  29.615   2.111  0.2023 -0.0672  0.0426
    1W        W46671   2.815   4.216   2.079 -0.3571 -0.1746  0.1014
    1W        W46672   8.741   7.488   7.992 -0.1846 -0.0981 -0.2081
    1W        W46673  23.628   3.313   2.190 -0.1113  0.1334 -0.0063
    1W        W46674   7.449   3.259   8.609 -0.1157 -0.0657 -0.2479
    1W        W46675  17.451  15.396   0.245 -0.0678  0.0159  0.1338
    1W        W46676   9.078  13.267   1.439  0.0282 -0.1663 -0.0736
    1W        W46677  16.764  17.896   1.854  0.2149 -0.0156 -0.2211
    1W        W46678   9.780  15.109   2.305 -0.1379  0.1032 -0.0736
    1W        W46679   6.845  27.549   7.251 -0.0312 -0.1672  0.2025
    1W        W46680  13.124   4.349   4.051  0.2479 -0.0712 -0.2491
    1W        W46681  16.121  24.768   0.253  0.0606  0.0438 -0.0612
    1W        W46682  29.196  15.957   8.604  0.0497  0.0311  0.0962
    1W        W46683  21.235   3.036   1.255 -0.0393 -0.1844  0.2158
    1W        W46684   7.604   8.793   7.844  0.1358 -0.0441  0.0711
    1W        W46685  13.777  17.338   6.511  0.0147 -0.2552  0.1039
    1W        W46686  27.661   6.377   0.736  0.0121 -0.0636 -0.0216
    1W        W46687   2.502   6.367   9.301 -0.0875  0.0848 -0.3431
    1W        W46688  22.407  24.505   2.322 -0.0366 -0.1084 -0.1507
    1W        W46689  26.320  14.117   1.837 -0.0802 -0.1654 -0.0479
    1W        W46690  15.453  10.881   8.597  0.1553 -0.1350 -0.0461
    1W        W46691  18.318  18.940   7.938 -0.2469  0.1163 -0.0537
    1W        W46692   9.821   5.113   2.116  0.2725 -0.4250  0.2223
    1W        W46693   1.779   6.144   7.029 -0.2391 -0.1565  0.3477
    1W        W46694  21.342  20.678   1.722  0.0398  0.0457 -0.2258
    1W        W46695  12.842   4.097   2.942 -0.3586  0.1100  0.1215
    1W        W46696   9.134  26.628   1.931 -0.1078  0.0932 -0.1915
    1W        W46697  11.176  13.836   7.615 -0.0919 -0.0734 -0.3384
    1W        W46698   5.809  19.232   8.376 -0.0947 -0.1744 -0.0909
    1W        W46699  12.744   5.803   1.800  0.0474 -0.1413  0.0473
    1W        W46700   0.164  22.541   8.656  0.0517  0.3354  0.3935
    1W        W46701  27.140  24.721   2.567  0.0681  0.1958 -0.0203
    1W        W46702  13.722   7.803   0.413  0.3011 -0.0051  0.0495
    1W        W46703  26.342  12.414   9.040  0.0766  0.0863  0.0451
    1W        W46704   1.892  10.846   0.207 -0.3220  0.2390  0.0185
    1W        W46705  20.552  23.326   8.939 -0.3009 -0.0280  0.0214
    1W        W46706  10.784  28.031   2.729 -0.1656 -0.0930  0.0912
    1W        W46707   5.433  17.164   9.404 -0.1347  0.2213  0.1315
    1W        W46708  28.294  14.973   1.156  0.0958  0.0861 -0.2974
    1W        W46709  14.051  27.486   1.920  0.1984  0.4227 -0.0075
    1W        W46710  20.636   2.849   3.467  0.0920 -0.2188 -0.0979
    1W        W46711  22.642   9.224   1.549 -0.2093 -0.0685 -0.0671
    1W        W46712  15.070   9.593   9.033  0.2061  0.0211  0.0628
    1W        W46713  13.443  27.057   7.249  0.1995  0.1940  0.2956
    1W        W46714  17.077   4.019   0.808 -0.1561  0.0757 -0.1387
    1W        W46715  28.903  23.691   9.301 -0.0840 -0.1900 -0.1145
    1W        W46716   1.127  27.712   7.361  0.1968  0.2013 -0.1564
    1W        W46717  16.911  29.467   8.270 -0.0456 -0.0461  0.1827
    1W        W46718  18.258  17.143   7.040 -0.1031  0.2793 -0.0900
    1W        W46719  29.018  29.072   8.199 -0.2146  0.0301  0.1623
    1W        W46720   8.862  29.295   7.828  0.0441 -0.3837  0.0178
    1W        W46721  21.200  20.140   0.062 -0.0979  0.1394 -0.0762
    1W        W46722   0.146  14.047   0.656 -0.0485  0.1347  0.1158
    1W        W46723  19.614  24.760   0.026 -0.0747 -0.0254 -0.0554
    1W        W46724  18.616   0.613   7.987  0.0581 -0.1368  0.2877
    1W        W46725  22.407  29.784   7.960  0.2108 -0.0040 -0.2229
    1W        W46726  10.574  19.617   0.858  0.1442  0.0849  0.2014
    1W        W46727  21.760  21.514   6.544  0.1349 -0.0082 -0.0588
    1W        W46728   7.535  21.406   1.474 -0.1727  0.0371  0.2205
    1W        W46729   2.550   7.929   6.483  0.0377  0.0522 -0.2758
    1W        W46730  15.610   0.636   1.725 -0.0845  0.2009 -0.1566
    1W        W46731   5.985   2.190   7.053  0.1650 -0.0136  0.1332
    1W        W46732   0.926  12.191   8.479  0.2196  0.1775  0.3494
    1W        W46733   0.527  20.498   8.188  0.4365  0.1816 -0.3411
    1W        W46734  13.371   2.959   2.907 -0.2464 -0.0420 -0.0436
    1W        W46735   7.986  24.023   6.375 -0.0772 -0.3822  0.3014
    1W        W46736  27.269   6.696   9.001  0.3170  0.0836  0.0031
    1W        W46737   5.179  27.798   8.568  0.2015 -0.1362  0.1886
    1W        W46738   0.052  22.214   1.052 -0.0137 -0.1307 -0.1831
    1W        W46739  27.005  18.557   8.516 -0.1244  0.0891 -0.0372
    1W        W46740  17.462  26.415   7.549 -0.0144  0.0486  0.1214
    1W        W46741   6.231   2.803   0.784  0.0297 -0.3293 -0.3127
    1W        W46742  16.316   1.669   2.538 -0.0077  0.3631 -0.3350
    1W        W46743   2.461   6.815   1.708 -0.2690 -0.1255 -0.1464
    1W        W46744  15.077  24.696   8.976 -0.0240  0.0789  0.1208
    1W        W46745   8.760   9.159   2.427  0.0166  0.1460 -0.2512
    1W        W46746  17.096  21.087   6.068  0.0557 -0.0293 -0.1044
    1W        W46747  17.956  29.041   7.279  0.3093 -0.0751 -0.4286
    1W        W46748  16.381   0.145   4.319  0.2228 -0.1283  0.1066
    1W        W46749   3.269  21.569   7.044 -0.3027 -0.2415  0.1639
    1W        W46750  24.724   6.274   1.845 -0.2793 -0.1216 -0.0011
    1W        W46751  25.300   9.098   0.736  0.1660 -0.0047 -0.0710
    1W        W46752  23.748  28.945   0.271 -0.3261  0.1857  0.3260
    1W        W46753   5.648   3.916   3.267 -0.5395  0.2222  0.2027
    1W        W46754  20.391   0.382   0.796  0.0625  0.1234 -0.6140
    1W        W46755  11.044  24.442   0.152  0.0048  0.0381 -0.0201
    1W        W46756  11.533  22.126   6.239 -0.2494  0.0629 -0.0104
    1W        W46757   4.131   0.324   8.826  0.0495  0.1435 -0.3791
    1W        W46758  20.511  15.371   2.095  0.0231  0.0175 -0.1895
    1W        W46759  23.876   7.210   9.067 -0.2625  0.2678 -0.1314
    1W        W46760  27.361  24.082   9.103  0.1431 -0.3053  0.1033
    1W        W46761  25.851  15.965   0.427 -0.0886  0.0482  0.0987
    1W        W46762  10.432  25.403   1.153 -0.3409  0.1968  0.0618
    1W        W46763  22.484  16.743   8.461  0.2228  0.0376  0.0203
    1W        W46764  22.298  17.598   9.165  0.2224  0.0054 -0.0958
    1W        W46765  25.252  22.646   9.431  0.0368  0.6601 -0.3001
    1W        W46766  22.310   4.382   9.002 -0.0244 -0.0244 -0.2437
    1W        W46767   3.317   6.519   1.425  0.3034 -0.0798 -0.0589
    1W        W46768   7.996  16.497   0.923 -0.1538 -0.0114 -0.0426
    1W        W46769  28.765   4.235   0.173  0.1135  0.0182 -0.0528
    1W        W46770   6.406  21.237   8.426 -0.3150 -0.2242 -0.1201
    1W        W46771  26.315  27.903   7.207  0.2271  0.4563 -0.0088
    1W        W46772  24.912  27.468   0.853 -0.0447 -0.2060 -0.1744
    1W        W46773   5.031  29.559   7.106  0.0601 -0.0780 -0.1150
    1W        W46774   7.122  18.180   6.387  0.5481 -0.1406  0.1146
    1W        W46775   3.367  21.525   6.456  0.2335 -0.1101  0.1180
    1W        W46776  20.082  29.545   9.355 -0.1367  0.1467 -0.1371
    1W        W46777   4.997  20.185   9.073 -0.2138 -0.1185 -0.2779
    1W        W46778  24.683  20.317   2.442 -0.1394 -0.0634  0.3623
    1W        W46779  23.929   6.991   8.573 -0.2184  0.0543 -0.2485
    1W        W46780   4.006  27.815   1.229 -0.5259 -0.0711 -0.0674
    1W        W46781  23.385  11.552   2.055 -0.2898 -0.1373 -0.1858
    1W        W46782   6.438  11.291   5.983  0.1277  0.2640  0.0775
    1W        W46783   6.158  15.353   9.487 -0.0183  0.0261  0.2266
    1W        W46784  25.812  22.657   2.079 -0.1900  0.1587 -0.2011
    1W        W46785  27.550  24.664   0.843 -0.0248 -0.0096 -0.1072
    1W        W46786  14.690  28.204   1.400 -0.0066  0.0720 -0.0634
    1W        W46787  18.725  22.534   8.731  0.0916 -0.1880 -0.1942
    1W        W46788  29.191   7.742   2.291 -0.1282  0.0891 -0.0379
    1W        W46789  19.254   0.737   2.405 -0.0320 -0.3064 -0.0073
    1W        W46790  19.557  17.013   7.672 -0.0202  0.1015  0.2970
    1W        W46791  26.695  28.058   7.960 -0.0700  0.1700 -0.0589
    1W        W46792   5.711   2.751   2.219  0.0387  0.1457  0.3044
    1W        W46793  28.957  20.938   9.086 -0.3681  0.0343  0.0926
    1W        W46794  10.866  21.138   9.485  0.1187 -0.1563  0.0798
    1W        W46795  12.167  19.339   5.969  0.0413 -0.0533  0.1293
    1W        W46796   2.821   8.197   7.310 -0.1164 -0.1898  0.0492
    1W        W46797  18.711  27.082   0.597  0.1778 -0.4431 -0.0129
    1W        W46798   6.199   7.691   0.408  0.2347  0.0141  0.3195
    1W        W46799  22.392  12.914   8.127 -0.1584 -0.2369 -0.1678
    1W        W46800   3.432   1.796   7.910 -0.3941  0.1660 -0.4620
    1W        W46801  22.745  25.534   1.702  0.1274 -0.0985 -0.1358
    1W        W46802  24.600   5.087   1.088 -0.3517  0.0813 -0.0423
    1W        W46803  13.002   6.263   2.894 -0.0850 -0.0728 -0.2132
    1W        W46804   3.092   9.286   0.726  0.0373  0.0895 -0.1050
    1W        W46805  11.481   9.076   1.220  0.1975  0.1015 -0.1620
    1W        W46806  25.632  17.421   0.412 -0.4246 -0.0156 -0.0804
    1W        W46807  11.279  27.842   0.263 -0.2091 -0.0103  0.1387
    1W        W46808  26.435   8.256   8.376  0.2325  0.0244 -0.2070
    1W        W46809   8.360   7.224   1.426 -0.0369 -0.3063 -0.0133
    1W        W46810  23.822  19.301   7.998  0.1691  0.1739 -0.2003
    1W        W46811  23.696  22.049   0.340  0.1724  0.1197  0.2816
    1W        W46812  28.277  25.906   2.488 -0.4581 -0.1869  0.0696
    1W        W46813  29.785   2.549   1.952 -0.1409  0.1375 -0.1711
    1W        W46814  16.351  22.672   6.013  0.1797 -0.1419  0.0094
    1W        W46815  14.541  10.276   2.644 -0.1605 -0.0268 -0.1485
    1W        W46816   6.456  29.383   1.958 -0.1658  0.0570  0.1200
    1W        W46817   7.503   4.077   2.263  0.0497 -0.0132 -0.1139
    1W        W46818  19.866  22.717   8.571 -0.1184 -0.3399 -0.0844
    1W        W46819   6.200   0.806   8.384  0.2154 -0.1279  0.0169
    1W        W46820   1.847   3.586   9.204  0.0667  0.0243  0.0575
    1W        W46821   7.699   0.224   0.719  0.0142 -0.0412  0.2505
    1W        W46822  11.183  22.740   9.043  0.1844  0.2055 -0.1331
    1W        W46823   8.591  15.946   7.508 -0.0087 -0.0750  0.2467
    1W        W46824   9.053  23.281   7.810  0.1752 -0.1337 -0.1732
    1W        W46825  19.637   1.519   1.424 -0.0630 -0.1035 -0.1338
    1W        W46826  18.053  13.760   0.102  0.2996 -0.0934  0.0326
    1W        W46827  20.951  12.811   7.817 -0.0739 -0.2431  0.1497
    1W        W46828  20.869  18.840   1.092 -0.0269 -0.0953  0.1289
    1W        W46829  18.345  26.404   1.172 -0.0104  0.2883 -0.0110
    1W        W46830   8.702   5.859   1.548 -0.2266 -0.1285  0.0106
    1W        W46831   8.376  16.649   5.437  0.1014  0.0589 -0.0356
    1W        W46832  24.770  26.435   1.564  0.0788 -0.5062 -0.0067
    1W        W46833   6.948  12.554   1.983  0.2642  0.1415 -0.1906
    1W        W46834  11.762  22.818   6.886 -0.0892  0.0532 -0.0625
    1W        W46835   0.206  16.140   8.309 -0.0626  0.1562 -0.1844
    1W        W46836  17.798  18.004   7.536  0.2853  0.2145 -0.0430
    1W        W46837  19.371  19.855   6.401  0.0102  0.0147  0.1093
    1W        W46838   1.126  24.086   1.749  0.0126  0.1443 -0.0421
    1W        W46839   0.446  13.748   1.040  0.2378  0.2897 -0.2828
    1W        W46840  13.417   5.322   3.105  0.1029  0.1673  0.2688
    1W        W46841   6.644  21.182   8.901  0.1289 -0.0780  0.2544
    1W        W46842  12.390   2.637   2.247 -0.0396  0.4309 -0.1271
    1W        W46843  26.241   5.309   0.377  0.1848  0.3767  0.0337
    1W        W46844   5.576  12.037   7.562 -0.0511 -0.3088  0.1841
    1W        W46845  22.230  10.806   0.536 -0.3650 -0.1241 -0.1194
    1W        W46846   3.668  14.348   8.974  0.1007 -0.2043  0.0207
    1W        W46847  23.940   4.326   1.861  0.1489  0.0450  0.0054
    1W        W46848  14.492   1.265   8.185  0.0325 -0.0588  0.0409
    1W        W46849   2.440  26.914   6.084 -0.1335  0.1924  0.1723
    1W        W46850  28.891   6.641   1.093  0.0598 -0.0307 -0.0717
    1W        W46851   8.623  21.537   9.180 -0.0581 -0.1800 -0.2090
    1W        W46852  15.407  17.716   0.685 -0.0394 -0.1473 -0.2661
    1W        W46853   1.029  19.124   6.776 -0.0411 -0.1908 -0.3776
    1W        W46854  24.572   3.663   2.547 -0.3455  0.3047  0.3615
    1W        W46855  26.366  20.312   1.579  0.0655  0.1654 -0.2709
    1W        W46856  26.263  26.595   7.984  0.3062  0.0990  0.2822
    1W        W46857   3.828   3.405   4.007 -0.3556  0.2320  0.3303
    1W        W46858  10.667  14.812   2.433 -0.0436  0.0465  0.2128
    1W        W46859   0.456  15.060   8.035  0.0631  0.0534 -0.1108
    1W        W46860  23.147   1.187   8.965  0.1675  0.1756 -0.3014
    1W        W46861   3.164   2.153   3.099  0.1277 -0.2412 -0.0301
    1W        W46862  12.387   7.808   2.367 -0.2304  0.1300 -0.2169
    1W        W46863  14.934  29.339   3.320 -0.1723  0.2228 -0.3411
    1W        W46864   2.356  19.422   9.051 -0.1495 -0.0979 -0.0825
    1W        W46865   0.130  26.144   0.744 -0.1013  0.1907 -0.1013
    1W        W46866   7.139  10.996   2.012  0.4752 -0.0792 -0.0011
    1W        W46867  14.101   5.034   9.436 -0.0793 -0.1034 -0.3477
    1W        W46868  19.624  16.331   1.004  0.0698  0.0727 -0.2832
    1W        W46869  27.959   2.018   2.579 -0.0531  0.3706 -0.0311
    1W        W46870  12.701   3.741   0.813  0.2334  0.3120 -0.0516
    1W        W46871  21.488  27.922   1.805  0.5233 -0.0817  0.0028
    1W        W46872  29.503  11.899   1.549 -0.1292 -0.2594 -0.3840
    1W        W46873  10.803  20.550   9.476  0.1291  0.1299 -0.0857
    1W        W46874  27.748  29.464   7.641 -0.2098 -0.2401  0.0316
    1W        W46875  26.548  15.901   1.423  0.0846  0.2371 -0.1482
    1W        W46876  16.809  22.763   0.124  0.0221  0.1993 -0.0081
    1W        W46877   0.331  23.323   2.365 -0.0401  0.2836  0.2471
    1W        W46878  12.080   5.236   2.501 -0.1362  0.1372 -0.2163
    1W        W46879  20.774   9.105   9.014  0.0073 -0.2578  0.2897
    1W        W46880  18.540  16.850   0.114 -0.0804  0.0339  0.0528
    1W        W46881  17.101  11.044   2.315  0.1449  0.1748  0.0358
    1W        W46882  19.074  21.197   6.719 -0.0007  0.1895 -0.0282
    1W        W46883  24.621  12.491   8.355 -0.0547 -0.1744 -0.1866
    1W        W46884  20.966   9.757   7.821 -0.1907 -0.0020 -0.1471
    1W        W46885  22.904  26.621   1.586 -0.0415 -0.2004  0.1448
    1W        W46886   6.245  28.686   7.069 -0.2373  0.0669  0.1532
    1W        W46887   7.605  24.748   7.421  0.1307 -0.0573 -0.1382
    1W        W46888   3.701  15.251   8.759 -0.0749 -0.2870 -0.0457
    1W        W46889   4.069   9.272   1.373 -0.2864 -0.0144  0.0230
    1W        W46890  25.236  19.243   1.644 -0.3292  0.1062 -0.2412
    1W        W46891  15.147  14.034   8.794  0.0699 -0.2095  0.0695
    1W        W46892   5.427  18.394   5.920 -0.1349  0.0990  0.0467
    1W        W46893  28.026   4.883   0.025 -0.0553  0.0077 -0.0302
    1W        W46894  14.577  25.756   9.427  0.1540  0.3153 -0.3691
    1W        W46895   9.754  20.516   6.982  0.1394  0.1600  0.1015
    1W        W46896   4.517   3.608   2.242  0.1491  0.0070  0.1939
    1W        W46897   1.789  23.368   8.931  0.0837  0.3977  0.0530
    1W        W46898  20.595  19.549   0.406  0.0281  0.0621  0.0256
    1W        W46899   2.157   4.730   2.548 -0.1159  0.1171 -0.0540
    1W        W46900   7.674  23.162   7.842 -0.1542  0.3664 -0.0454
    1W        W46901  28.893   4.051   9.229 -0.0236 -0.0407 -0.2067
    1W        W46902  14.222  20.880   5.947 -0.1714  0.0002  0.1803
    1W        W46903  16.283   1.987   3.102 -0.0900  0.0235 -0.1421
    1W        W46904   1.494   8.536   7.573  0.0994 -0.1793 -0.0386
    1W        W46905  28.710   7.492   7.329 -0.4062  0.0320 -0.2437
    1W        W46906  20.169  26.557   0.259 -0.0710 -0.3023  0.2208
    1W        W46907  23.466   3.136   1.216 -0.1367  0.1882  0.0177
    1W        W46908  15.480   1.527   1.136 -0.1069 -0.0095  0.0890
    1W        W46909  20.488  27.413   8.488 -0.1720  0.0620  0.0309
    1W        W46910   6.265  25.231   7.728 -0.0424 -0.1226  0.1374
    1W        W46911  18.071  18.971   7.491 -0.3455 -0.2597  0.2254
    1W        W46912  11.751  21.706   5.526  0.0598  0.1214  0.2646
    1W        W46913  18.306   0.532   8.338 -0.2870  0.1897 -0.1876
    1W        W46914  21.648  28.263   2.392 -0.0860  0.3268  0.2116
    1W        W46915  10.035  19.822   0.847  0.4290 -0.0553 -0.0899
    1W        W46916  11.470   3.017   0.649  0.3849  0.0445  0.0982
    1W        W46917  15.680  26.760   7.347  0.0156 -0.0502 -0.1191
    1W        W46918  16.575  10.547   9.431  0.4724 -0.1001  0.0573
    1W        W46919  18.592   2.891   1.197  0.1758 -0.0620  0.0088
    1W        W46920  11.060   4.249   0.021  0.1420  0.2636  0.0022
    1W        W46921  10.482   6.293   2.394 -0.0005 -0.0483 -0.0551
    1W        W46922  24.302   2.554   2.246  0.0471 -0.1878  0.0019
    1W        W46923   2.346  16.990   1.466  0.0235 -0.1190  0.0830
    1W        W46924  17.662   5.833   8.580  0.1246 -0.0456 -0.1463
    1W        W46925  25.549  20.712   2.341  0.0267  0.0979  0.2319
    1W        W46926  20.416  20.570   9.259 -0.3829 -0.0557  0.0646
    1W        W46927  19.486   4.758   2.601 -0.4922 -0.0971 -0.2441
    1W        W46928  23.896  11.626   2.179 -0.4261  0.0478  0.0730
    1W        W46929   5.247  12.578   2.721 -0.0676  0.2328  0.0446
    1W        W46930  11.237  11.439   1.622  0.0977 -0.3970  0.0482
    1W        W46931   9.707  10.120   8.867  0.1077 -0.2520 -0.0664
    1W        W46932   5.015   2.638   6.620 -0.0159  0.1930 -0.3107
    1W        W46933  22.655   2.082   8.291  0.1596  0.0389 -0.1829
    1W        W46934  20.739   2.115   3.399 -0.2305 -0.0058 -0.1041
    1W        W46935  12.875  11.427   9.476  0.0686  0.0455  0.0508
    1W        W46936  12.313   9.988   2.001  0.0390 -0.3278  0.1277
    1W        W46937   8.230   9.359   1.619  0.4508 -0.1385  0.0722
    1W        W46938   6.247  20.211   1.372 -0.1530 -0.0672 -0.0384
    1W        W46939  10.313  24.252   9.069 -0.1096 -0.3504 -0.3254
    1W        W46940  15.332   1.178   7.929 -0.2930 -0.1754  0.1471
    1W        W46941   5.753  23.578   9.368  0.2441 -0.2048  0.1345
    1W        W46942  28.228   8.018   0.573 -0.4103 -0.1213 -0.1103
    1W        W46943  15.971   8.599   0.027  0.0681 -0.2118 -0.2628
    1W        W46944   9.178   8.537   8.801 -0.3259 -0.3113 -0.1069
    1W        W46945  28.816  12.622   2.040  0.1019  0.1185  0.0614
    1W        W46946   0.636  26.871   1.633 -0.0765 -0.2363 -0.1908
    1W        W46947  27.528  18.585   1.727 -0.0838  0.0959  0.0579
    1W        W46948  28.791  10.937   1.618  0.0568 -0.0592 -0.1485
    1W        W46949  26.419   8.363   0.183 -0.1265 -0.0850  0.2070
    1W        W46950   2.202   6.750   2.862  0.2506  0.1510 -0.3147
    1W        W46951  13.940  25.775   1.534  0.2634  0.2193 -0.4115
    1W        W46952  15.887  14.221   7.654  0.0535  0.1336 -0.2424
    1W        W46953   5.506  10.750   0.235 -0.1388  0.0751 -0.3225
    1W        W46954   8.895   2.055   2.834 -0.1439 -0.0661 -0.4921
    1W        W46955  13.049   0.513   0.961 -0.0334  0.1608  0.2012
    1W        W46956   0.949   0.163   0.266 -0.2780  0.0607  0.0571
    1W        W46957  17.643   9.886   0.234  0.2005  0.3058 -0.4056
    1W        W46958  25.394  26.558   2.022 -0.0416  0.2680  0.0270
    1W        W46959  23.472  28.721   3.286  0.0843  0.2320  0.0440
    1W        W46960  11.041  16.117   8.081  0.0690  0.1421  0.1996
    1W        W46961  10.959  20.698   8.969 -0.1260  0.1742 -0.4505
    1W        W46962  23.577  10.228   0.967 -0.0828 -0.3326 -0.1762
    1W        W46963  13.544   2.300   7.944  0.0223 -0.0129  0.0133
    1W        W46964  10.342   0.538   0.789  0.0528 -0.0968 -0.0892
    1W        W46965   5.651   6.344   7.518  0.2504  0.0646  0.2797
    1W        W46966   8.427  11.497   6.377 -0.2304  0.0334 -0.1565
    1W        W46967  12.434  15.307   9.459  0.1150  0.3043 -0.0426
    1W        W46968  22.333  28.133   0.232 -0.0892  0.1255 -0.0850
    1W        W46969   8.282  19.198   8.778 -0.3235  0.0462  0.0746
    1W        W46970  13.216   5.933   3.176  0.1936 -0.3920 -0.1156
    1W        W46971   6.742   9.691   9.245 -0.1823 -0.3107  0.3113
    1W        W46972  24.808   6.339   7.029  0.2217 -0.1955  0.1151
    1W        W46973  24.611  11.333   8.892 -0.0547 -0.3621  0.1103
    1W        W46974   4.464  29.659   7.138  0.1535 -0.1010 -0.0085
    1W        W46975  13.732   8.908   3.411  0.1798 -0.0311  0.0011
    1W        W46976  11.745  17.447   0.388  0.3404  0.0511  0.0143
    1W        W46977  18.618  18.895   1.435 -0.1256 -0.2450  0.0003
    1W        W46978  18.979  29.742   3.574  0.2470 -0.1390 -0.1391
    1W        W46979  23.781   3.521   2.736 -0.0412 -0.0226 -0.2586
    1W        W46980  17.072  11.173   7.690  0.2055 -0.0265 -0.1598
    1W        W46981  12.366   7.909   1.499 -0.0559 -0.1069 -0.4617
    1W        W46982  10.261  14.678   7.546  0.2384  0.4219  0.0178
    1W        W46983   6.182  24.639   1.329  0.0897  0.0577  0.1047
    1W        W46984  19.465  15.595   8.966 -0.1909  0.0026 -0.0547
    1W        W46985   2.452   9.155   0.809 -0.1883  0.0835 -0.0158
    1W        W46986  22.565   7.175   0.215 -0.0213  0.4208 -0.0652
    1W        W46987  23.684   9.057   2.896 -0.2494  0.0528  0.2246
    1W        W46988   8.781   6.252   2.870 -0.0443  0.0939 -0.1016
    1W        W46989   2.484   1.018   8.414 -0.0950  0.0121 -0.0636
    1W        W46990  16.496  22.811   5.495 -0.0051 -0.0876  0.1300
    1W        W46991  13.835  16.521   8.986 -0.1096 -0.1120 -0.2319
    1W        W46992   3.172   2.250   5.820  0.0761  0.0600 -0.2195
    1W        W46993   4.585  13.172   0.291  0.2482 -0.0833  0.2618
    1W        W46994   7.586  28.868   6.193 -0.1907 -0.1519 -0.0947
    1W        W46995  11.914  25.116   1.539  0.1018 -0.2482  0.2914
    1W        W46996  23.575  22.438   0.017  0.0121 -0.1225 -0.0074
    1W        W46997   8.239   0.905   1.222  0.0528 -0.0442 -0.2495
    1W        W46998  25.723  25.260   2.451  0.2431  0.0746  0.0023
    1W        W46999  25.155   6.453   1.654 -0.2616  0.4769 -0.0024
    1W        W47000  14.764  20.809   0.714  0.1033 -0.1033 -0.1605
    1W        W47001  29.630   1.731   0.773 -0.0277 -0.0353 -0.0665
    1W        W47002  16.351   3.356   4.430 -0.0954 -0.3231  0.0293
    1W        W47003  28.077   4.930   1.378  0.3026 -0.0778  0.2237
    1W        W47004   0.971  15.980   6.184  0.1302  0.0021  0.0974
    1W        W47005  22.929  15.017   0.209 -0.0185 -0.3456  0.2270
    1W        W47006  28.010   6.168   1.053  0.1537 -0.4139 -0.0099
    1W        W47007   4.625  12.968   1.749  0.1362 -0.1444 -0.4075
    1W        W47008   0.369   8.034   0.555  0.2396  0.1022 -0.2398
    1W        W47009  11.148   2.300   4.145  0.0521  0.1087 -0.1923
    1W        W47010  19.586  15.282   8.607 -0.1188 -0.1934  0.1496
    1W        W47011  18.946  18.410   6.459  0.5194 -0.1652 -0.1233
    1W        W47012  21.631  11.962   7.946 -0.0896  0.2450 -0.2504
    1W        W47013  18.740  26.620   1.401 -0.0967  0.0045 -0.2318
    1W        W47014  25.236  26.789   7.298 -0.1942 -0.0670  0.0462
    1W        W47015  18.448  26.013   2.028  0.1399 -0.1679 -0.0126
    1W        W47016   9.894  10.501   9.138 -0.0221 -0.2561 -0.0286
    1W        W47017   5.420  13.111   7.594 -0.1527  0.3585 -0.1938
    1W        W47018  14.099  21.372   0.499 -0.0428  0.1631 -0.0253
    1W        W47019  19.559  25.130   8.041 -0.0804  0.1567 -0.4065
    1W        W47020  24.631   3.734   8.442  0.2689 -0.1320 -0.2559
    1W        W47021  10.917   6.132   7.887  0.4857 -0.2300 -0.2319
    1W        W47022   5.324  17.430   0.883  0.0781 -0.1753  0.0879
    1W        W47023   4.866   0.724   7.201  0.0187  0.2866 -0.0341
    1W        W47024  20.146   2.941   2.698  0.4627 -0.2436 -0.1123
    1W        W47025   2.015   7.518   2.242 -0.3344  0.1758 -0.1091
    1W        W47026   5.023  23.691   9.037  0.1920  0.0773 -0.1061
    1W        W47027  26.980  13.923   0.550 -0.1253 -0.1500 -0.0162
    1W        W47028  16.961  17.461   0.771 -0.5006 -0.1028  0.1488
    1W        W47029  13.372  17.064   6.412 -0.1483  0.0099  0.1534
    1W        W47030  26.022  10.487   8.221  0.0243  0.0871 -0.1390
    1W        W47031  11.302   0.105   2.680  0.1558 -0.1475  0.3857
    1W        W47032  25.249  12.626   2.390  0.0509 -0.0173 -0.1042
    1W        W47033  19.624   9.298   8.681  0.1981 -0.0510 -0.2534
    1W        W47034   9.358  10.228   1.894  0.2265 -0.0723  0.1414
    1W        W47035  10.159   4.798   2.881 -0.0688 -0.2988 -0.4007
    1W        W47036  18.944  20.932   6.308 -0.0211  0.0042 -0.2025
    1W        W47037  12.724  14.310   8.327 -0.3170  0.0279 -0.2912
    1W        W47038   9.526  24.034   1.171 -0.0241  0.1071 -0.3114
    1W        W47039  11.634   2.466   9.263 -0.2950 -0.0527 -0.0137
    1W        W47040  11.575   4.888   2.775  0.2902 -0.1325  0.1566
    1W        W47041   6.855  25.247   7.050 -0.1472  0.2036 -0.0649
    1W        W47042  10.961  19.353   6.872 -0.3809 -0.2332 -0.1352
    1W        W47043  28.027   7.087   8.828  0.0291 -0.0517 -0.0563
    1W        W47044  18.431  17.229   6.551 -0.2707  0.2163 -0.0527
    1W        W47045   2.860  26.509   6.658  0.3361  0.1555  0.0225
    1W        W47046  12.223   3.987   1.397 -0.3890 -0.1358  0.0422
    1W        W47047  22.787  22.871   1.034 -0.0944 -0.2338  0.2109
    1W        W47048   9.105  29.807   8.443 -0.0837  0.0959 -0.0473
    1W        W47049  27.645  24.455   8.192  0.1665  0.1198 -0.0238
    1W        W47050   7.484   8.560   6.625 -0.0143 -0.0210 -0.2303
    1W        W47051  14.338  19.459   0.852 -0.0651  0.2722  0.2988
    1W        W47052  18.851  23.726   1.050  0.2761 -0.1112 -0.0378
    1W        W47053  13.893  17.804   2.648  0.1451 -0.0869  0.1157
    1W        W47054  29.231   3.469   2.312 -0.0849  0.2716  0.1169
    1W        W47055  26.233   4.839   2.955  0.5010 -0.0281 -0.0977
    1W        W47056  18.288   8.284   0.359 -0.1144  0.0095 -0.1395
    1W        W47057  24.624   7.391   1.019 -0.0439  0.3864  0.2364
    1W        W47058  15.992  20.408   6.486 -0.2222 -0.6035  0.1171
    1W        W47059   5.997   0.115   7.077 -0.1932  0.0705  0.0045
    1W        W47060   9.338   0.595   2.002 -0.3649 -0.2773  0.2292
    1W        W47061  24.674   8.236   7.418 -0.0394 -0.4594  0.2323
    1W        W47062  15.974   5.941   2.290  0.1390 -0.1626 -0.2121
    1W        W47063  13.673   5.087   1.708  0.0224 -0.0370  0.1916
    1W        W47064  29.112  27.102   8.276 -0.1679  0.0178 -0.0263
    1W        W47065   5.794  25.188   5.873 -0.1538 -0.2697  0.1747
    1W        W47066  28.772   7.503   8.271  0.0970  0.2370 -0.0890
    1W        W47067  22.183  11.493   0.762 -0.1212 -0.0931  0.2735
    1W        W47068   8.831   2.616   8.456  0.4770  0.0711  0.2250
    1W        W47069   4.724  24.958   6.833 -0.0562 -0.0140 -0.0119
    1W        W47070  13.769   3.861   1.748  0.0279 -0.2548  0.3793
    1W        W47071  11.759  26.399   2.091 -0.0439 -0.3051  0.0554
    1W        W47072  27.351  16.987   1.946  0.0691  0.1524 -0.2585
    1W        W47073  24.633  23.640   7.314  0.4764 -0.3139  0.1420
    1W        W47074  23.017  11.405   0.742  0.1305  0.2520  0.1573
    1W        W47075   4.994   7.421   9.230 -0.1738  0.1003 -0.1309
    1W        W47076  23.333  19.750   1.143  0.0994  0.1814 -0.2867
    1W        W47077  15.157  24.330   6.458 -0.0925  0.3444  0.2292
    1W        W47078  27.132  24.299   8.204  0.2036 -0.0398 -0.2198
    1W        W47079   8.399  17.560   1.960  0.1992 -0.0412  0.1310
    1W        W47080   7.464  26.565   1.477  0.0550 -0.1624  0.0834
    1W        W47081  11.442  23.565   2.194  0.0823  0.3547  0.1966
    1W        W47082  17.814   0.072   2.187  0.1636  0.2881  0.1892
    1W        W47083   3.989   5.915   2.288  0.0995  0.0740  0.0912
    1W        W47084  17.442  21.769   9.108  0.0379 -0.0428  0.1600
    1W        W47085  23.615  21.224   9.144  0.0350  0.0829  0.0785
    1W        W47086  27.627  10.571   7.732  0.1879  0.0444  0.1048
    1W        W47087   3.420  14.015   7.635 -0.0283  0.1185  0.2140
    1W        W47088  10.125  14.871   1.508 -0.0657 -0.2333 -0.0213
    1W        W47089   9.037   9.015   8.689  0.2184 -0.0675  0.1979
    1W        W47090  16.589   6.765   2.457  0.1972  0.0673 -0.0069
    1W        W47091  22.065   6.081   0.365  0.0009  0.0466  0.0866
    1W        W47092   9.724  11.940   9.144  0.3667 -0.3504  0.2002
    1W        W47093  25.358   5.292   7.771 -0.1366 -0.1362  0.2940
    1W        W47094   9.622   8.310   7.236 -0.0147  0.4219 -0.1738
    1W        W47095  28.442  24.988   7.506 -0.1152  0.1642  0.3056
    1W        W47096   4.138  10.546   7.491  0.2312 -0.3007  0.0722
    1W        W47097   1.000   0.404   7.054 -0.1309 -0.0217 -0.2263
    1W        W47098  14.986  27.716   8.899 -0.1362  0.2522  0.0351
    1W        W47099   2.354  13.392   7.676 -0.0380  0.1860 -0.0955
    1W        W47100  19.097  27.347   8.058 -0.2046 -0.1501 -0.0495
    1W        W47101   2.996  16.814   0.494 -0.2133 -0.3009 -0.1377
    1W        W47102  27.973  21.110   6.896 -0.2078  0.3145  0.0444
    1W        W47103  23.775   0.129   0.806 -0.2959 -0.2627 -0.1664
    1W        W47104   3.588   5.335   7.716  0.2412  0.4407  0.0308
    1W        W47105   1.020  14.154   7.959 -0.0412  0.3575 -0.2685
    1W        W47106   1.936   2.568   7.120 -0.0269  0.2657  0.3180
    1W        W47107   4.933  10.097   8.754  0.0570 -0.3048  0.1542
    1W        W47108  10.311   0.649   9.266  0.2201  0.0969 -0.0502
    1W        W47109   9.426  29.267   0.355 -0.1931 -0.0233  0.2534
    1W        W47110  13.705  26.593   7.126  0.0227 -0.0882  0.0322
    1W        W47111  29.493  25.428   1.831  0.0772  0.1034  0.0789
    1W        W47112  12.259   8.447   9.145  0.2696 -0.1655 -0.0405
    1W        W47113   1.336   7.317   7.092  0.0301 -0.1267  0.1054
    1W        W47114  26.098   1.165   9.387  0.2481 -0.0452 -0.1757
    1W        W47115  20.650   7.779   8.158 -0.3162  0.0209  0.0694
    1W        W47116  29.235   1.516   6.873 -0.1819 -0.1835  0.1296
    1W        W47117   2.249   8.798   8.893 -0.1566 -0.2434 -0.1190
    1W        W47118   9.245  26.067   0.660  0.0287 -0.0725 -0.0785
    1W        W47119  25.145   7.037   8.985 -0.1689  0.0570 -0.1650
    1W        W47120   4.527   7.935   0.177 -0.0247  0.3291  0.2763
    1W        W47121   4.124  14.295   8.730  0.1573 -0.1229  0.0988
    1W        W47122  22.121  10.778   2.217 -0.1844  0.0916 -0.2597
    1W        W47123  20.297   8.255   2.798  0.0288  0.0138  0.0130
    1W        W47124   6.329  11.425   8.363  0.0133  0.1874  0.2387
    1W        W47125   1.798  24.036   5.753  0.0560 -0.2867 -0.2829
    1W        W47126  24.288   3.252   8.472  0.0373  0.3525  0.2651
    1W        W47127  24.509   9.532   8.376 -0.1871 -0.0646 -0.0586
    1W        W47128   9.111  16.730   1.560  0.3466  0.1794  0.0368
    1W        W47129  15.202   8.227   2.423  0.0292 -0.0056  0.0778
    1W        W47130  28.399   8.784   1.520  0.4124  0.3035  0.0854
    1W        W47131  20.828  15.609   7.164  0.0885 -0.0466 -0.0343
    1W        W47132   9.312  17.244   0.141  0.0362  0.2272  0.1202
    1W        W47133   1.526  17.575   7.070  0.2696 -0.4538 -0.1914
    1W        W47134  25.319  28.935   9.521  0.0748 -0.2361  0.1273
    1W        W47135   0.295   3.051   7.299  0.0984  0.0110 -0.4303
    1W        W47136   1.329  25.033   0.457  0.0377 -0.0775 -0.0418
    1W        W47137  25.318   9.938   0.945  0.1981 -0.4643 -0.0238
    1W        W47138   8.235  19.587   8.461  0.0572 -0.0733 -0.0072
    1W        W47139  13.453   9.936   9.370 -0.1843  0.3274  0.1372
    1W        W47140  13.835  15.069   2.445 -0.2890  0.1334 -0.2260
    1W        W47141   9.308   4.842   2.732  0.1759  0.2270 -0.2017
    1W        W47142   5.694   7.631   2.807  0.1075  0.0214  0.1995
    1W        W47143   0.532  26.167   5.545  0.0269  0.1132 -0.2925
    1W        W47144  26.883  11.735   1.412 -0.0702  0.2248  0.0582
    1W        W47145   9.689  15.476   2.626  0.0160 -0.0109 -0.0227
    1W        W47146  19.850  14.721   2.119  0.3057  0.1611  0.0036
    1W        W47147  12.548  23.343   0.295  0.1199  0.0616  0.0269
    1W        W47148  23.849  25.040   8.915 -0.0521  0.1725  0.4237
    1W        W47149   2.855  13.523   2.386 -0.2839  0.0709 -0.0095
    1W        W47150  24.391  15.749   0.748  0.3953  0.0038  0.0111
    1W        W47151  17.411   9.483   7.672  0.1396  0.0152  0.1269
    1W        W47152  12.553  14.821   8.445 -0.2903 -0.0954 -0.2406
    1W        W47153  13.774   7.241   3.115 -0.0925  0.0520 -0.1325
    1W        W47154   6.648  28.986   7.366 -0.1003 -0.4883  0.1691
    1W        W47155   6.325   4.916   3.345 -0.1698 -0.0625 -0.0245
    1W        W47156  14.582  17.193   8.558 -0.2132 -0.0734  0.2504
    1W        W47157   4.418   7.215   2.601 -0.0502  0.1044 -0.3080
    1W        W47158   1.461  13.745   2.358  0.2084 -0.2289 -0.1307
    1W        W47159  17.720   7.473   2.536  0.0603  0.0465  0.1967
    1W        W47160  26.389  25.458   0.875 -0.2589  0.0595 -0.0129
    1W        W47161  29.190  18.196   9.241 -0.0763  0.0302  0.0451
    1W        W47162   4.712  18.462   1.174 -0.2589 -0.3460  0.0248
    1W        W47163   0.225  10.491   2.937 -0.2487 -0.2047 -0.0290
    1W        W47164  26.156  28.806   2.090  0.0703  0.1813 -0.1452
    1W        W47165  14.252  16.360   6.589  0.1423  0.0103 -0.0843
    1W        W47166   2.047  26.580   5.981 -0.1940  0.1080  0.0240
    1W        W47167  15.135  28.998   7.824  0.0555 -0.0330  0.0900
    1W        W47168  10.086  16.637   8.806  0.2923  0.1009 -0.0794
    1W        W47169   5.179  24.881   9.499 -0.1081 -0.2444 -0.1470
    1W        W47170  22.509  14.313   9.065 -0.0386 -0.2577  0.0582
    1W        W47171  20.345  16.426   6.521  0.2079 -0.2091 -0.1702
    1W        W47172  12.508   3.048   2.473  0.1511 -0.2362 -0.5624
    1W        W47173   4.201  16.178   0.836 -0.1592 -0.2586 -0.0451
    1W        W47174  20.457  19.310   2.319 -0.1580 -0.1292  0.0342
    1W        W47175  12.060   5.061   7.486 -0.0601 -0.1520  0.0664
    1W        W47176  24.207  20.817   7.876 -0.0972  0.0781  0.0139
    1W        W47177  24.366   8.581   2.323  0.0692  0.1895 -0.1308
    1W        W47178  14.320  18.561   1.400  0.1039  0.2738  0.1543
    1W        W47179  17.139  20.966   7.363 -0.2464  0.0291 -0.0243
    1W        W47180   6.280  22.321   7.143  0.3559 -0.1161  0.3392
    1W        W47181   8.331  20.488   0.862  0.1839 -0.0645  0.0289
    1W        W47182   7.985   6.096   2.525  0.0803  0.0003  0.0004
    1W        W47183  29.276  26.301   8.552 -0.0181  0.2375  0.1646
    1W        W47184   3.962  25.139   8.977 -0.0130  0.0282  0.5846
    1W        W47185  10.909   1.284   9.249  0.1043 -0.4303  0.1742
    1W        W47186  28.637   8.327   0.774 -0.0069  0.0061 -0.3265
    1W        W47187   2.387   3.978   1.809  0.1558 -0.2603 -0.0095
    1W        W47188  28.966  19.565   1.971 -0.0679 -0.0194 -0.7390
    1W        W47189  10.042  19.213   0.060 -0.0309  0.1231 -0.5550
    1W        W47190   7.027  12.109   5.924 -0.0306 -0.1635 -0.2556
    1W        W47191  12.683  10.089   1.574  0.1157  0.0296 -0.0275
    1W        W47192  12.479   2.187   2.793  0.1183  0.2044 -0.0468
    1W        W47193   7.045  29.046   6.938 -0.2435 -0.0721  0.1579
    1W        W47194  28.935   1.120   1.346 -0.1310 -0.2321  0.0422
    1W        W47195  21.887   1.514   2.392  0.2382 -0.0475 -0.2464
    1W        W47196  28.934  28.730   0.778 -0.2323  0.1946  0.1597
    1W        W47197   6.711   0.154   6.932  0.2318  0.2395  0.0381
    1W        W47198  28.547   7.042   8.100 -0.2123  0.2007  0.2071
    1W        W47199  26.739  13.383   0.822  0.1576 -0.3433  0.1171
    1W        W47200  26.580  22.921   1.696  0.2902 -0.3248 -0.0477
    1W        W47201  11.971  23.471   8.014 -0.0735 -0.0136 -0.4863
    1W        W47202  12.705  17.841   6.788  0.1791 -0.0785 -0.1567
    1W        W47203  13.110  27.079   9.138  0.1080  0.1397 -0.1552
    1W        W47204  14.951  14.154   0.120 -0.0707 -0.3011 -0.3091
    1W        W47205   2.275   4.218   0.180 -0.2950 -0.0688 -0.2675
    1W        W47206  19.632   6.435   1.105  0.0485 -0.2264 -0.1182
    1W        W47207  18.893   2.837   2.559  0.4943  0.1081  0.1054
    1W        W47208  28.272   6.892   2.691 -0.0749  0.0495 -0.0520
    1W        W47209  11.896  12.604   8.715 -0.2229 -0.3231  0.1443
    1W        W47210  25.750  28.502   2.110 -0.1405 -0.2880 -0.2072
    1W        W47211  18.059  22.431   0.766 -0.0237  0.1925 -0.0585
    1W        W47212   7.982  13.328   2.045 -0.0518 -0.1886 -0.0433
    1W        W47213  21.383  21.437   0.845  0.1929  0.3396  0.0546
    1W        W47214   8.798   9.189   8.294  0.0678  0.0866  0.0704
    1W        W47215   1.600  26.998   6.588  0.0266 -0.2081 -0.0892
    1W        W47216   5.334   5.357   2.464  0.0117  0.0093  0.0997
    1W        W47217  10.077  26.232   6.219 -0.0298 -0.2884 -0.0423
    1W        W47218  25.724  28.820   1.261  0.1173 -0.1499  0.0109
    1W        W47219   1.175  17.132   7.026 -0.2333  0.0104 -0.2866
    1W        W47220  29.420  10.712   9.493 -0.1780 -0.1011 -0.0007
    1W        W47221   2.192  28.782   0.884  0.0838  0.1444  0.1858
    1W        W47222  16.689  17.557   1.197  0.0692 -0.0833  0.1678
    1W        W47223  16.677  10.814   0.272  0.0799  0.1895  0.0906
    1W        W47224   1.822   9.843   0.939 -0.1620 -0.0684 -0.1044
    1W        W47225   1.747   5.609   2.544 -0.2352  0.0560 -0.2446
    1W        W47226   8.944  15.023   1.950  0.0241  0.1018  0.0999
    1W        W47227   9.910  21.587   6.006  0.0259  0.0081  0.0897
    1W        W47228  26.836  25.486   5.973  0.2047  0.1328  0.0651
    1W        W47229  12.468   2.891   0.697 -0.0458  0.2420  0.0805
    1W        W47230  18.094   3.264   1.614 -0.1032  0.1989 -0.0516
    1W        W47231  17.547  23.318   0.192  0.0603 -0.1124 -0.4519
    1W        W47232   6.899  15.431   6.175  0.1235 -0.2405 -0.2887
    1W        W47233  10.507  25.578   7.365 -0.0248  0.1996 -0.0700
    1W        W47234   6.988  16.675   7.131  0.1699 -0.1220  0.0378
    1W        W47235  25.146  25.747   1.503 -0.2201 -0.2189 -0.0771
    1W        W47236   6.664  10.875   1.995  0.1709  0.1865  0.0465
    1W        W47237   7.591  24.129   8.085  0.0313 -0.2544  0.1352
    1W        W47238  26.631  15.013   1.022 -0.3303 -0.2594 -0.1049
    1W        W47239  22.186  23.637   8.839  0.1002 -0.2105  0.1894
    1W        W47240  28.239  16.083   7.600 -0.0486  0.0820 -0.0845
    1W        W47241  18.768  11.387   7.671  0.1613  0.0291 -0.0864
    1W        W47242  17.382   2.100   1.715 -0.3293  0.0057  0.1100
    1W        W47243  20.389   1.434   3.011 -0.0812 -0.0017  0.0469
    1W        W47244   8.145   3.257   9.083  0.1059 -0.1557  0.1854
    1W        W47245  18.236  17.551   8.234 -0.0514  0.0642 -0.0778
    1W        W47246   6.152  21.844   1.449  0.1633  0.0675 -0.0947
    1W        W47247  12.209   2.066   7.968  0.4160 -0.0932 -0.3444
    1W        W47248   0.907   8.752   0.257  0.0518 -0.2398  0.0174
    1W        W47249   0.918   7.562   8.882 -0.1135 -0.1690  0.0843
    1W        W47250   8.869   3.203   2.744 -0.1811 -0.0203  0.0126
    1W        W47251  27.504  15.763   9.240 -0.1413  0.0834  0.4331
    1W        W47252   7.485   3.239   2.621 -0.0466 -0.2350 -0.0835
    1W        W47253  29.211  23.356   7.971 -0.1535 -0.1415  0.4082
    1W        W47254   4.780  21.437   9.199  0.2043  0.0205 -0.0210
    1W        W47255  26.253  22.409   6.600 -0.2673 -0.1386  0.1545
    1W        W47256   9.409  11.178   6.446  0.0302 -0.0297  0.1046
    1W        W47257   2.029   2.588   8.997  0.1177  0.0542 -0.1537
    1W        W47258  17.514  28.340   9.078 -0.0011 -0.3684 -0.0303
    1W        W47259   1.308  25.640   8.450  0.1073  0.4269  0.1187
    1W        W47260   0.938   7.725   7.951 -0.0999 -0.2939  0.0345
    1W        W47261  22.588  18.682   7.222  0.1004 -0.4228  0.0177
    1W        W47262   2.148  16.900   0.365  0.3719  0.1443  0.1280
    1W        W47263  21.368  23.843   8.662 -0.3890 -0.3098 -0.2939
    1W        W47264   3.841  21.079   2.846  0.0342 -0.0201 -0.0672
    1W        W47265   9.901   0.188   7.960  0.1546 -0.0998  0.3123
    1W        W47266   8.875  19.550   9.507 -0.0999 -0.1364 -0.0778
    1W        W47267  16.414   7.754   2.234 -0.0888 -0.0329 -0.0201
    1W        W47268  28.403  26.701   9.055 -0.1803  0.2405  0.1017
    1W        W47269  16.985  15.244   0.089 -0.0740 -0.1740 -0.1375
    1W        W47270  10.382  19.159   2.104  0.0727 -0.1008 -0.0482
    1W        W47271  21.053  25.283   2.245 -0.3896 -0.0865 -0.3912
    1W        W47272  21.018   6.638   8.861  0.0266 -0.0061 -0.2120
    1W        W47273  10.853  14.937   6.768  0.0872 -0.3434 -0.0255
    1W        W47274  20.581  22.104   9.183  0.1386  0.1082  0.0949
    1W        W47275  22.868  10.853   0.125  0.0158 -0.2273  0.0595
    1W        W47276  25.700   4.075   8.363 -0.1703  0.1855  0.0607
    1W        W47277  26.044  20.046   7.933 -0.0842  0.0535  0.0757
    1W        W47278  21.770   7.592   1.168 -0.3946  0.0452  0.2649
    1W        W47279   7.017  24.236   2.181  0.0854  0.1414 -0.2132
    1W        W47280   7.011   5.151   9.296  0.0802  0.0686 -0.0001
    1W        W47281   4.739  16.395   9.203  0.2434  0.0770  0.1192
    1W        W47282   1.308  29.578   0.290 -0.1595 -0.1086 -0.0188
    1W        W47283   2.140  27.263   6.575 -0.0963 -0.0889  0.1496
    1W        W47284  25.303   3.306   0.700 -0.3909 -0.0877  0.0087
    1W        W47285   5.534   5.864   9.227  0.0765 -0.1383 -0.0397
    1W        W47286  10.233  21.807   9.368  0.1435  0.1850  0.1363
    1W        W47287   9.777  28.431   8.231 -0.2038 -0.0165  0.0474
    1W        W47288   1.739   1.076   2.381  0.0097 -0.1603  0.1187
    1W        W47289   2.794  27.805   6.556 -0.1137 -0.3493  0.1729
    1W        W47290   1.355   4.942   1.189 -0.3028  0.2131  0.0193
    1W        W47291   6.646   2.829   0.204  0.0408  0.1226  0.0332
    1W        W47292  21.935  22.403   7.906 -0.2617 -0.0296 -0.0057
    1W        W47293  20.773  21.101   7.793  0.2518 -0.2374 -0.1449
    1W        W47294  25.673  12.693   7.447 -0.3381  0.3696  0.2785
    1W        W47295  18.486  17.135   1.553 -0.0371 -0.0370 -0.1279
    1W        W47296  26.162  11.920   9.177 -0.1839  0.0592 -0.3154
    1W        W47297  24.533  13.628   2.724  0.0203  0.2375  0.2001
    1W        W47298  21.918  18.958   7.657 -0.0906  0.2963  0.1493
    1W        W47299  23.480  23.155   1.629 -0.0043  0.1123 -0.0130
    1W        W47300   5.560  15.735   6.686  0.2133  0.2639 -0.2929
    1W        W47301  29.377   4.671   1.014 -0.0226  0.0844  0.1132
    1W        W47302  18.208   4.493   1.691 -0.4176 -0.2049 -0.6509
    1W        W47303   7.532  24.919   6.837 -0.0338 -0.2199  0.1004
    1W        W47304  17.206  26.460   8.111  0.1618  0.1810  0.0874
    1W        W47305   2.569   3.085   3.246  0.0664 -0.0015  0.2603
    1W        W47306   4.699  23.264   0.603  0.5139  0.3223 -0.1499
    1W        W47307  13.563   3.223   0.396 -0.0936 -0.0100 -0.2039
    1W        W47308   7.097   7.181   7.504 -0.2365 -0.1183 -0.1504
    1W        W47309  12.466  20.940   5.155 -0.1950 -0.0363 -0.2800
    1W        W47310  14.996  10.258   2.400  0.1290 -0.1808  0.0419
    1W        W47311  21.955  23.532   6.852  0.0367 -0.3923  0.0390
    1W        W47312   4.305  26.931   9.004 -0.1081  0.1319  0.1256
    1W        W47313  13.356   5.139   3.564  0.1718 -0.1106 -0.2867
    1W        W47314   4.037  13.601   2.386  0.0353 -0.0838  0.1631
    1W        W47315  15.270   0.225   1.261  0.4698 -0.0508 -0.1043
    1W        W47316   8.301  17.064   9.498  0.1024 -0.1238 -0.1137
    1W        W47317   6.277   1.504   9.048 -0.1631 -0.1297  0.1153
    1W        W47318  26.245  15.341   9.157  0.0559  0.1004 -0.1622
    1W        W47319  10.535   9.971   0.008 -0.1660  0.5630 -0.4246
    1W        W47320  24.930  14.499   9.468 -0.1536  0.2083  0.2199
    1W        W47321  15.368  27.579   7.470 -0.1217  0.0567 -0.0179
    1W        W47322   2.103  27.453   6.074 -0.0708 -0.3191 -0.1448
    1W        W47323   1.838  23.151   6.932 -0.0067  0.0956 -0.4547
    1W        W47324  18.071  23.365   1.275 -0.1171 -0.0344 -0.1363
    1W        W47325  10.071  29.542   1.589 -0.0305  0.2798 -0.1567
    1W        W47326  13.213   8.784   2.231 -0.1069  0.2553 -0.0123
    1W        W47327  23.101  20.497   7.172 -0.0493  0.1401 -0.1216
    1W        W47328   7.096  24.533   9.241  0.1290 -0.2230 -0.0379
    1W        W47329   3.115   8.012   6.974 -0.0515  0.3052  0.1096
    1W        W47330  11.590   8.345   1.558 -0.0795 -0.2786 -0.0037
    1W        W47331   0.809  19.821   9.281 -0.1678 -0.1771 -0.2316
    1W        W47332  19.888  13.516   0.881 -0.1360  0.0740 -0.1324
    1W        W47333  20.059   0.000   2.146  0.0940 -0.0722 -0.0541
    1W        W47334  21.269  14.789   9.003 -0.0407  0.1149 -0.0779
    1W        W47335  24.692  24.501   6.425 -0.1590  0.0063  0.4082
    1W        W47336  15.149   1.934   8.667  0.0056  0.2002  0.2416
    1W        W47337  21.915   2.930   2.728 -0.1965 -0.1783 -0.0853
    1W        W47338   0.320  21.653   1.906 -0.0502  0.2224 -0.1377
    1W        W47339  18.234   3.902   9.456  0.0553 -0.2709 -0.0665
    1W        W47340  17.212   3.773   4.584  0.1577 -0.2698  0.1253
    1W        W47341  17.696   2.995   0.882 -0.3143  0.0606 -0.3491
    1W        W47342  10.043   6.142   8.146  0.1598 -0.0548  0.1005
    1W        W47343  22.043  14.473   1.648  0.2331 -0.1928  0.1608
    1W        W47344  15.131  20.235   6.552  0.0189  0.0739  0.0630
    1W        W47345   4.726   2.067   7.434 -0.0145  0.1250  0.1860
    1W        W47346  14.333  24.512   1.390  0.0276 -0.0461  0.0042
    1W        W47347   8.176  25.611   7.052  0.1640 -0.0503  0.1826
    1W        W47348  15.661   0.828   8.128 -0.3378  0.1754  0.0034
    1W        W47349   7.243   5.227   8.855 -0.1245  0.0272  0.2850
    1W        W47350  24.848   4.671   2.098  0.1343  0.0706  0.2049
    1W        W47351  11.092  28.649   8.401  0.3838  0.3634 -0.0514
    1W        W47352  22.685   3.449   1.197 -0.3525  0.1988 -0.0613
    1W        W47353  27.729   4.406   7.915  0.0019  0.0810  0.2572
    1W        W47354  19.251  17.837   8.415 -0.0067  0.1063  0.0969
    1W        W47355   4.290  11.363   1.561 -0.0223 -0.2783 -0.2893
    1W        W47356   5.014  12.701   0.823  0.0708 -0.4304  0.3445
    1W        W47357  11.712   4.839   7.863  0.0496 -0.1025  0.1679
    1W        W47358  25.005   6.920   0.730  0.2576  0.0728  0.1136
    1W        W47359  15.314   0.107   2.861 -0.0090  0.0696 -0.1957
    1W        W47360   1.832  26.212   1.660  0.1241  0.2172  0.0019
    1W        W47361  24.826  18.234   8.323 -0.0178  0.3349  0.1149
    1W        W47362  28.098   1.097   7.639  0.0102 -0.0031 -0.2473
    1W        W47363  10.001  27.404   1.850  0.2055 -0.0696  0.0728
    1W        W47364   9.986  26.081   6.871  0.3458 -0.2406  0.1207
    1W        W47365  16.132   0.239   0.674  0.0644  0.1440  0.3474
    1W        W47366  23.588   9.046   2.353  0.1259  0.2402  0.1335
    1W        W47367  28.581  16.478   0.592 -0.1826 -0.2160 -0.2598
    1W        W47368   3.654  23.958   8.806  0.0905  0.1230 -0.3295
    1W        W47369  16.232  13.282   1.607 -0.2244  0.1996 -0.3039
    1W        W47370   0.698  13.617   1.610  0.2177 -0.0390 -0.0185
    1W        W47371  20.501   7.068   9.434  0.0443 -0.3738 -0.2192
    1W        W47372   0.676  27.568   7.056  0.3719  0.3179 -0.1974
    1W        W47373  25.634  26.980   1.479  0.0034  0.2534  0.0993
    1W        W47374  28.510  24.282   7.529  0.0901  0.2286  0.0069
    1W        W47375  16.291  15.305   7.638 -0.0298 -0.1646  0.0672
    1W        W47376  14.291   0.028   8.919 -0.1754 -0.0552  0.1310
    1W        W47377   6.823  28.332   8.065  0.0496  0.3783 -0.2136
    1W        W47378   1.298  17.374   0.566 -0.0665  0.0396 -0.1259
    1W        W47379  14.142  22.738   4.882 -0.0535 -0.1065  0.3032
    1W        W47380  27.472   0.019   1.884  0.3241 -0.4059  0.0602
    1W        W47381  15.838  27.794   9.018  0.0410  0.0422  0.0532
    1W        W47382  23.938  20.024   6.687  0.0177  0.2591 -0.2226
    1W        W47383   9.509  24.725   1.746  0.0564 -0.2361  0.0493
    1W        W47384   0.028   8.921   9.247 -0.0699 -0.0649 -0.0358
    1W        W47385  23.610  12.043   2.300 -0.0571 -0.0207 -0.2374
    1W        W47386  23.995  25.003   7.442 -0.0122 -0.3321  0.0919
    1W        W47387  25.972  14.322   1.045  0.4140  0.1965  0.1039
    1W        W47388  10.965  16.019   7.208  0.3015  0.0405  0.0029
    1W        W47389   8.385  27.748   8.193  0.1928 -0.1611  0.3679
    1W        W47390   6.966  14.013   9.073  0.3939 -0.2675  0.0917
    1W        W47391  11.706  20.917   8.710  0.1312  0.2791 -0.4997
    1W        W47392  28.813  16.364   8.651 -0.0488 -0.2514 -0.0340
    1W        W47393   1.942   2.141   2.441  0.0924 -0.1266  0.1337
    1W        W47394   9.194   7.812   7.237 -0.0518 -0.0074 -0.1091
    1W        W47395  22.586  12.195   7.512 -0.1484 -0.0309 -0.2363
    1W        W47396  13.005  17.581   1.293  0.1844 -0.3566 -0.1023
    1W        W47397  17.820  14.014   7.772  0.3546 -0.2087 -0.0808
    1W        W47398   2.128  10.515   7.958  0.0282 -0.1618 -0.2060
    1W        W47399  10.774  13.136   9.307 -0.1439  0.2299  0.3348
    1W        W47400  10.199   3.299   3.423 -0.1639  0.2316  0.1517
    1W        W47401   4.153  27.128   7.745  0.1074 -0.1803 -0.0075
    1W        W47402  10.347   8.403   8.515  0.0219  0.4213  0.1589
    1W        W47403   0.676  26.718   0.325  0.3435  0.2367  0.2901
    1W        W47404   2.451  16.586   1.206  0.1259  0.1296 -0.1647
    1W        W47405  15.542  27.760   6.980 -0.0289 -0.0955  0.1915
    1W        W47406   6.758  17.319   9.259 -0.1449  0.2934  0.0700
    1W        W47407   9.551  16.122   9.260  0.1248  0.2572 -0.1097
    1W        W47408  15.098  12.882   7.435  0.0968 -0.0749 -0.2829
    1W        W47409  24.394   1.329   6.983  0.1649  0.0375 -0.0277
    1W        W47410  12.075  16.962   2.191  0.0455  0.2832  0.0526
    1W        W47411  14.153  29.127   1.709 -0.0016  0.2307 -0.0821
    1W        W47412  27.244  20.558   8.335  0.0983 -0.0395  0.0948
    1W        W47413  13.520  27.177   7.741  0.0082  0.1091  0.3158
    1W        W47414  22.091  10.433   0.259 -0.0523 -0.1246 -0.2419
    1W        W47415  28.314  23.902   7.031  0.2057  0.0842 -0.1573
    1W        W47416   7.233   5.396   0.892  0.0819  0.0066  0.0328
    1W        W47417  15.201  19.030   7.073 -0.0159 -0.2178  0.3811
    1W        W47418  18.299  24.460   9.394 -0.0910  0.1039  0.0576
    1W        W47419  10.111  12.872   8.209  0.3115  0.0150 -0.2913
    1W        W47420   8.087  21.033   7.457  0.0602 -0.2377  0.0830
    1W        W47421  25.644  25.861   8.623 -0.0642 -0.0253 -0.0319
    1W        W47422  26.739  17.750   9.225  0.1011  0.1593  0.3444
    1W        W47423  25.760  22.023   0.291 -0.1913 -0.0848  0.1395
    1W        W47424  23.753   5.166   2.318 -0.2147  0.2042  0.0555
    1W        W47425   6.370   6.402   7.938 -0.1058  0.0981  0.1093
    1W        W47426   4.999   2.350   2.361 -0.3871  0.1330 -0.3218
    1W        W47427  28.270   9.346   7.181 -0.3192 -0.4048 -0.1316
    1W        W47428  15.389  13.435   1.842 -0.1515  0.0422 -0.0174
    1W        W47429  15.514  27.349   0.332  0.0855 -0.0373  0.2664
    1W        W47430  18.494   5.344   8.931 -0.1101 -0.0044 -0.1231
    1W        W47431  10.005  25.772   2.398 -0.0310 -0.1060  0.1311
    1W        W47432  29.220  24.947   9.146  0.4020 -0.0568 -0.2301
    1W        W47433  21.300  21.022   9.342 -0.0756 -0.2781 -0.3147
    1W        W47434  28.563   7.444   2.623  0.2917 -0.0130 -0.2468
    1W        W47435  17.172  22.252   7.565 -0.3058  0.3526  0.2443
    1W        W47436   8.958  18.615   1.834 -0.3652  0.1140 -0.0758
    1W        W47437  13.884   1.448   8.867 -0.1161  0.5904 -0.3259
    1W        W47438   1.730  15.494   2.763  0.2187  0.0112  0.0237
    1W        W47439  18.995  21.234   8.407 -0.2545  0.0380  0.2471
    1W        W47440   8.660   4.806   1.100  0.0513  0.0760 -0.1347
    1W        W47441  16.538  12.499   8.588 -0.0658 -0.0254  0.1426
    1W        W47442  23.804   5.304   2.862  0.4428  0.1491 -0.3445
    1W        W47443  29.828   3.897   8.849  0.2408 -0.2438 -0.0576
    1W        W47444  18.164  29.768   2.496  0.1666  0.2159 -0.0825
    1W        W47445  19.392  18.820   7.181  0.2058 -0.2202 -0.1603
    1W        W47446  16.165   2.772   0.060 -0.0120  0.1349  0.0897
    1W        W47447  22.154  13.443   7.273  0.0908  0.0956 -0.2674
    1W        W47448  11.248  21.211   2.381  0.0265  0.0142  0.3179
    1W        W47449  19.277  17.078   0.365  0.1864  0.2605 -0.0449
    1W        W47450  28.741   7.876   6.517 -0.1986 -0.2319  0.0176
    1W        W47451  10.990   0.992   1.844  0.2775 -0.1684 -0.1676
    1W        W47452  25.302  21.896   1.194  0.1790 -0.0179 -0.2484
    1W        W47453  20.426   0.681   8.415  0.1972  0.0361 -0.3272
    1W        W47454  26.414  17.555   7.178  0.4330 -0.2015  0.1595
    1W        W47455  28.344  19.543   7.973 -0.0981  0.1342  0.0705
    1W        W47456  14.265  15.804   1.682  0.0127  0.3820 -0.1329
    1W        W47457  15.821  15.302   1.379 -0.2820  0.1515 -0.2223
    1W        W47458  23.183  22.605   8.707 -0.2942 -0.1424 -0.2530
    1W        W47459   4.830  24.791   0.413 -0.0453 -0.1738  0.3362
    1W        W47460  28.976   2.905   7.174  0.0672 -0.0162 -0.0687
    1W        W47461   5.190  14.334   8.420 -0.0166  0.0642 -0.3466
    1W        W47462  18.294  26.433   8.889 -0.0296  0.2145 -0.1023
    1W        W47463   4.213  23.960   5.442  0.3897 -0.1919 -0.1330
    1W        W47464  23.154  28.029   8.033 -0.0987  0.0623  0.2445
    1W        W47465   0.018  21.376   7.729 -0.1632  0.1307  0.1704
    1W        W47466   3.091  12.699   2.661 -0.3958 -0.1332  0.1310
    1W        W47467   7.698  18.013   0.410  0.0300 -0.4602  0.0195
    1W        W47468  24.137  21.803   1.697 -0.2115  0.0607 -0.1443
    1W        W47469  17.783   9.479   1.155  0.0489 -0.2216 -0.4679
    1W        W47470   9.982   1.888   7.725  0.0162 -0.0982 -0.4229
    1W        W47471   3.553   6.904   0.261 -0.2326 -0.0253  0.1038
    1W        W47472  20.375  25.843   8.638  0.2529 -0.0736  0.2109
    1W        W47473   3.184   2.237   1.750 -0.1408  0.3804 -0.3552
    1W        W47474  12.281  21.928   5.365  0.2419 -0.1269  0.1132
    1W        W47475  28.033  24.429   2.493 -0.2354  0.0206  0.2417
    1W        W47476  21.458  16.234   6.836  0.1522 -0.0403  0.0053
    1W        W47477   8.368  16.793   1.080  0.0282 -0.0321  0.0937
    1W        W47478  10.695   7.741   8.576  0.0307 -0.0657 -0.1935
    1W        W47479   5.631   3.927   2.719  0.4100  0.1519  0.1043
    1W        W47480  15.735  25.385   1.295  0.2119 -0.0019 -0.4771
    1W        W47481   9.547   1.328   3.580  0.1104 -0.1784  0.2423
    1W        W47482  15.122  28.263   0.701 -0.1572 -0.0095 -0.0577
    1W        W47483  27.461  27.771   8.403 -0.0785  0.3066 -0.0078
    1W        W47484   2.432  15.544   9.112  0.0166 -0.0866  0.2990
    1W        W47485  24.960  18.653   6.742  0.2541 -0.1504 -0.0453
    1W        W47486  14.578  23.394   1.818 -0.2613  0.1953 -0.3867
    1W        W47487   7.886   3.996   7.125  0.0197  0.0086  0.0053
    1W        W47488  24.506  10.804   0.651 -0.3313 -0.0700 -0.1742
    1W        W47489  27.201  24.614   1.655  0.1309  0.0296 -0.0331
    1W        W47490   8.746  18.599   2.613 -0.0077 -0.5096  0.1141
    1W        W47491  28.038  22.740   2.483 -0.1018 -0.1681 -0.0808
    1W        W47492   4.634   6.830   0.559 -0.1676  0.2232 -0.1097
    1W        W47493   8.807  26.951   1.134 -0.2943  0.1525 -0.3191
    1W        W47494  13.647   3.559   0.831  0.1490 -0.2785  0.1217
    1W        W47495  25.636  11.142   9.219 -0.4237 -0.2852  0.1878
    1W        W47496   8.462   9.120   8.672  0.1418 -0.0614  0.0498
    1W        W47497   6.445  14.534   2.873  0.2508  0.0244 -0.1381
    1W        W47498  27.741  21.399   7.213  0.2684 -0.0650 -0.0419
    1W        W47499  25.878  20.344   2.115  0.0405 -0.2583  0.1229
    1W        W47500  12.232  27.145   1.736 -0.1810 -0.0769 -0.1200
    1W        W47501   2.899   9.835   1.430  0.0831  0.0294 -0.1763
    1W        W47502   1.689  23.456   0.249 -0.0930  0.1312 -0.1919
    1W        W47503   5.214  27.012   0.865 -0.2148 -0.1443  0.2130
    1W        W47504   4.998  17.523   0.528  0.0975  0.0897  0.1469
    1W        W47505  26.043  23.619   6.337 -0.2465 -0.1722  0.0258
    1W        W47506  24.576  11.077   9.299  0.1051 -0.0757 -0.3273
    1W        W47507  28.320   5.317   7.629 -0.0739  0.3072 -0.0249
    1W        W47508   5.612  27.022   1.917 -0.0080  0.0296 -0.0605
    1W        W47509  16.561  25.543   9.023  0.1327  0.2415 -0.2816
    1W        W47510  24.925   8.684   2.711 -0.0560  0.5539 -0.0006
    1W        W47511  20.260   1.589   0.215 -0.2170 -0.0355 -0.2518
    1W        W47512  25.946  10.203   8.773 -0.0303 -0.2999 -0.1679
    1W        W47513  26.101  20.427   8.898  0.2119 -0.3749  0.0472
    1W        W47514   5.132  15.537   1.614  0.1999  0.0498  0.1461
    1W        W47515   8.693  28.804   0.266  0.2348 -0.1612  0.0708
    1W        W47516  13.976   6.379   8.533  0.0891 -0.1153  0.1276
    1W        W47517   4.353  19.662   1.932 -0.1385 -0.1023  0.1281
    1W        W47518  29.104  23.275   9.509  0.0415 -0.3066 -0.1262
    1W        W47519  17.515   9.385   0.361  0.0786 -0.2562 -0.2100
    1W        W47520  23.159  17.323   2.223 -0.1758 -0.0859 -0.1119
    1W        W47521  26.128  17.691   1.789 -0.1511  0.2233  0.2411
    1W        W47522  12.865  17.874   2.004  0.3805 -0.0639  0.0376
    1W        W47523   7.814  10.256   8.254  0.1601 -0.2800 -0.3564
    1W        W47524  27.322  20.043   8.366 -0.1284  0.2876 -0.0584
    1W        W47525  25.186  29.747   8.716  0.1624  0.2529  0.0478
    1W        W47526  12.411  13.032   8.164 -0.3720  0.2959  0.0153
    1W        W47527  25.890   7.683   9.206 -0.0323  0.3721 -0.0947
    1W        W47528  21.830   5.522   0.593  0.0483 -0.1508  0.0233
    1W        W47529   2.883   2.334   2.165 -0.0739 -0.1938  0.1324
    1W        W47530   2.534  13.909   1.244 -0.3038  0.0094 -0.2141
    1W        W47531  16.070   8.785   9.044 -0.3213  0.1110 -0.2060
    1W        W47532   1.175  12.895   2.558  0.2278 -0.2434 -0.0727
    1W        W47533  12.633   6.974   2.052  0.1037 -0.1300 -0.1646
    1W        W47534  22.335  25.924   6.971  0.2034 -0.1438 -0.1005
    1W        W47535   9.183   9.451   0.496  0.0413 -0.0541 -0.0088
    1W        W47536   9.397  10.002   2.681  0.1105 -0.1303 -0.0400
    1W        W47537   6.947  19.971   7.833 -0.1050 -0.3216  0.1568
    1W        W47538  15.364  19.327   0.048  0.1326  0.3851  0.0339
    1W        W47539   4.432  14.505   0.037 -0.2163 -0.0957  0.1068
    1W        W47540  13.542  13.748   7.116 -0.0712 -0.1687  0.1427
    1W        W47541   8.161   1.769   0.534 -0.0070  0.1722  0.3393
    1W        W47542  18.026  11.187   7.351  0.0655 -0.0508  0.0894
    1W        W47543  21.752  28.784   8.648 -0.0684  0.2982  0.0684
    1W        W47544   0.788  16.879   8.547  0.2488 -0.1420  0.5927
    1W        W47545   2.775  14.864   0.976 -0.0859  0.1988 -0.2596
    1W        W47546  27.541  13.928   1.173  0.0328 -0.1146  0.2171
    1W        W47547  11.225  21.634   0.737 -0.4428  0.0415 -0.2618
    1W        W47548  12.482  15.324   1.446 -0.1186 -0.0854 -0.1706
    1W        W47549  21.272  16.407   1.557 -0.2649  0.0012  0.2181
    1W        W47550  10.964  29.611   1.823  0.2961 -0.1290 -0.1158
    1W        W47551  21.715  17.108   7.625 -0.0453  0.3642  0.2823
    1W        W47552  28.284  26.390   2.199 -0.2371 -0.1721 -0.0969
    1W        W47553   3.124   2.799   8.239  0.0624 -0.2772 -0.0694
    1W        W47554   3.174  19.311   1.557  0.0300 -0.0877  0.2877
    1W        W47555  10.266  11.552   2.422 -0.0024 -0.3329  0.3069
    1W        W47556  22.921  13.560   7.933 -0.1037 -0.1303  0.0815
    1W        W47557  23.812  16.855   2.110  0.2002 -0.0504 -0.1550
    1W        W47558   9.035   9.285   7.312  0.0587  0.0008 -0.0238
    1W        W47559  25.006  17.737   7.232 -0.2264 -0.0324 -0.3840
    1W        W47560   9.410  27.849   6.634  0.2258  0.1910  0.2223
    1W        W47561  12.134  22.378   9.003  0.1593 -0.0604  0.1099
    1W        W47562  20.785   0.625   2.602  0.1338 -0.2785  0.2376
    1W        W47563   5.657  22.745   0.009  0.1838  0.0576  0.0990
    1W        W47564   6.285  19.341   0.019 -0.3591 -0.0512 -0.0543
    1W        W47565   3.939   4.048   3.331 -0.0604  0.0165  0.2328
    1W        W47566   9.371  13.149   1.995 -0.1838 -0.1989  0.0105
    1W        W47567  15.901  19.111   7.365 -0.0527 -0.0973 -0.1879
    1W        W47568  16.857   4.717   3.145  0.0414 -0.2801 -0.3503
    1W        W47569  21.720  29.367   7.570  0.2435 -0.1764  0.0424
    1W        W47570  11.054   8.370   7.069  0.5013 -0.0851  0.0644
    1W        W47571   2.146  16.740   2.445 -0.3044 -0.0881  0.0536
    1W        W47572  21.291  25.470   8.958 -0.1244  0.2823  0.1700
    1W        W47573  22.461  15.551   6.755 -0.0324  0.0110 -0.1987
    1W        W47574   3.749  22.890   6.826  0.0703  0.3535  0.0828
    1W        W47575  10.283   9.788   7.475  0.0788  0.0397 -0.0500
    1W        W47576   7.581  15.791   1.404 -0.3611  0.0483  0.0843
    1W        W47577  14.914  26.175   8.566  0.1764  0.1868 -0.1357
    1W        W47578   7.528   6.966   0.574  0.1711  0.1134 -0.1867
    1W        W47579   7.702   1.817   0.718 -0.2154  0.2074  0.0536
    1W        W47580  15.269  14.336   8.404 -0.0179  0.3093 -0.1360
    1W        W47581  20.056   5.902   1.846 -0.0174 -0.0355  0.0134
    1W        W47582  27.280   4.088   2.798  0.0743  0.1945  0.1269
    1W        W47583   7.227  25.721   5.810  0.0418  0.0502  0.2361
    1W        W47584  19.203  24.902   9.289  0.1196  0.0781  0.0372
    1W        W47585   0.462   4.840   7.209 -0.0260  0.0769 -0.0112
    1W        W47586  15.068  24.851   5.741  0.3025  0.2228  0.1697
    1W        W47587   1.313   6.323   7.895 -0.0781  0.2246  0.1247
    1W        W47588  16.065  10.219   1.368  0.0437  0.0496 -0.0194
    1W        W47589   3.337   4.287   8.598  0.3166  0.1780  0.0005
    1W        W47590  27.376   2.272   9.436 -0.1311  0.3739  0.0776
    1W        W47591   4.829  28.525   6.880 -0.2817  0.1645 -0.1615
    1W        W47592  24.288  18.667   9.452  0.1067  0.1031 -0.0776
    1W        W47593  25.171  21.032   7.751  0.0894  0.1643  0.1836
    1W        W47594  10.590   3.617   0.818 -0.1167  0.1122 -0.2850
    1W        W47595   7.237   3.015   7.788  0.1808  0.0588 -0.2314
    1W        W47596  18.944  23.233   1.192  0.1907  0.1146 -0.1217
    1W        W47597  22.543   8.318   1.879 -0.2153 -0.0895  0.2886
    1W        W47598   2.300  16.958   9.370 -0.2581 -0.0382 -0.0730
    1W        W47599  14.002  16.187   7.296  0.0920  0.1475 -0.1480
    1W        W47600  20.654  13.339   0.511  0.2804 -0.0863  0.0738
    1W        W47601  16.706  29.682   2.998 -0.0340  0.5134  0.1990
    1W        W47602   5.006   5.445   2.065 -0.1051  0.1349  0.0558
    1W        W47603  24.886   0.813   0.158 -0.1585 -0.0368 -0.3254
    1W        W47604   6.694   5.497   2.434 -0.1062  0.3975  0.1639
    1W        W47605   5.560  16.432   7.431  0.4971 -0.1811 -0.3756
    1W        W47606  24.179   2.620   1.606 -0.0029  0.1371 -0.2392
    1W        W47607  25.099  17.123   6.362 -0.3409 -0.2376  0.1657
    1W        W47608   2.110   7.339   0.674  0.1488 -0.2621 -0.1043
    1W        W47609   2.746  20.624   0.380 -0.0335 -0.3486  0.1119
    1W        W47610  20.112  25.094   8.328 -0.0760  0.0459 -0.2448
    1W        W47611  26.281  24.552   1.476 -0.1584 -0.2259 -0.1660
    1W        W47612   8.019   0.844   0.717  0.0918 -0.1852 -0.1589
    1W        W47613  26.654  26.912   2.377 -0.1192 -0.1120  0.1845
    1W        W47614   4.795   3.397   7.200  0.1345 -0.1035 -0.3675
    1W        W47615  13.440   1.827   0.820  0.1542  0.2492  0.2097
    1W        W47616  28.453  23.632   2.122 -0.1260  0.0274 -0.0233
    1W        W47617   6.507  21.259   6.453  0.1176 -0.0765 -0.0684
    1W        W47618  21.624  25.888   8.802 -0.1446 -0.1163 -0.1352
    1W        W47619  28.345  15.591   0.261  0.1300 -0.1048  0.1694
    1W        W47620  26.287  19.730   8.272 -0.1006 -0.0556  0.0454
    1W        W47621  13.862  27.086   1.718  0.0321  0.0760  0.1595
    1W        W47622   7.691  28.077   1.521  0.0013 -0.1156  0.4576
    1W        W47623  12.682  27.181   1.928 -0.2172 -0.2456  0.3489
    1W        W47624  11.735   4.161   3.784  0.1191  0.1633  0.1921
    1W        W47625  23.521  22.651   9.077  0.1804  0.1735 -0.0580
    1W        W47626  15.717  18.360   7.733 -0.2358  0.1081  0.0323
    1W        W47627  14.966   7.369   1.323  0.1243  0.0221  0.1530
    1W        W47628  16.327   2.269   0.073 -0.1475 -0.2481  0.1025
    1W        W47629  23.455   6.736   2.726  0.0907 -0.0126  0.2956
    1W        W47630   2.023   4.032   8.277 -0.2494 -0.1852 -0.3362
    1W        W47631   5.600  10.855   2.852  0.1078 -0.0693 -0.1168
    1W        W47632   0.851  14.471   1.264  0.2636  0.2780  0.0845
    1W        W47633  27.797  19.148   8.680  0.2780 -0.2292  0.0245
    1W        W47634  12.822  25.408   1.227 -0.0324  0.0361  0.1022
    1W        W47635  12.775  27.511   8.031  0.2222  0.0211  0.0417
    1W        W47636  14.818  18.792   1.318  0.0268  0.0776 -0.1187
    1W        W47637   8.865  26.254   0.891  0.1846 -0.3709 -0.2702
    1W        W47638  14.536   8.559   9.337  0.0653 -0.2015  0.3336
    1W        W47639  27.710  23.679   7.762 -0.2210 -0.1024 -0.2818
    1W        W47640  29.308  20.668   2.464 -0.0417 -0.0792 -0.3073
    1W        W47641  17.787  19.849   7.467  0.4071  0.0427 -0.0241
    1W        W47642  20.409  25.886   7.563 -0.0766 -0.0305  0.0558
    1W        W47643  27.503  11.997   1.981  0.2322  0.0259 -0.0077
    1W        W47644  25.994  24.460   0.074  0.1539  0.0734 -0.4407
    1W        W47645  26.196   7.198   1.479 -0.2705 -0.1221 -0.1756
    1W        W47646  19.306  13.381   1.716  0.2561  0.2092  0.1471
    1W        W47647   6.568  21.219   1.286  0.0095 -0.0112 -0.2153
    1W        W47648   0.198  21.783   9.402  0.0027  0.1556  0.2921
    1W        W47649   4.459  16.785   7.869  0.0102 -0.0828  0.0009
    1W        W47650  25.212   4.519   2.772  0.0297 -0.1864  0.1111
    1W        W47651   4.321  15.598   3.568  0.3139 -0.2902 -0.0040
    1W        W47652  11.866   1.466   3.195  0.2832 -0.0293  0.0787
    1W        W47653  21.713  26.949   6.899 -0.0723  0.2642  0.2778
    1W        W47654  21.140  24.030   6.801 -0.0844  0.0582 -0.1460
    1W        W47655  27.131  10.349   1.081  0.2193 -0.2349 -0.0131
    1W        W47656  22.595   0.682   2.014 -0.0635 -0.2206  0.0083
    1W        W47657  22.108  15.096   7.469  0.0542  0.1134  0.2649
    1W        W47658   5.733  23.010   0.984  0.0916 -0.0611 -0.1143
    1W        W47659  23.693  25.757   6.985 -0.0476 -0.1435 -0.0371
    1W        W47660  14.200  11.415   1.031  0.0566  0.0014  0.1219
    1W        W47661   6.406  25.035   6.821  0.3173  0.1970 -0.0887
    1W        W47662  24.484  27.719   9.308  0.2760  0.2599  0.0121
    1W        W47663   8.799  24.970   9.248  0.0124  0.0055 -0.3091
    1W        W47664   1.002   1.701   8.467 -0.0140  0.2699 -0.2562
    1W        W47665  23.047  10.582   8.771 -0.0224  0.2729 -0.0159
    1W        W47666   4.351  22.038   6.785 -0.1236 -0.1413  0.0372
    1W        W47667  25.334  24.252   1.736  0.1241  0.0860 -0.2644
    1W        W47668   8.629  11.367   7.708 -0.1362 -0.1404  0.0697
    1W        W47669   8.141  10.022   2.549 -0.2823  0.4105  0.1245
    1W        W47670  13.457  18.276   1.949  0.1166 -0.2194  0.4015
    1W        W47671  16.741   2.958   4.553 -0.1242 -0.4766  0.0120
    1W        W47672  21.044   8.333   3.361  0.1720  0.1250  0.3455
    1W        W47673  16.012   2.916   7.836 -0.0779 -0.0299  0.3879
    1W        W47674   3.892   6.518   2.356 -0.0491  0.1444 -0.0086
    1W        W47675  28.285  24.299   1.564 -0.0482 -0.2241  0.1589
    1W        W47676  14.422  10.284   8.661  0.0833  0.0293  0.2068
    1W        W47677  16.067  12.694   0.819 -0.1445  0.2997 -0.1233
    1W        W47678   4.694  10.349   1.769  0.5131  0.2789 -0.0854
    1W        W47679  13.309  16.791   7.194  0.0369 -0.1604 -0.0445
    1W        W47680  21.349  26.223   7.574 -0.0388  0.3026  0.1085
    1W        W47681  20.054  23.376   7.697  0.1460  0.0343  0.1606
    1W        W47682   6.061   6.128   7.297  0.1183  0.0594  0.3965
    1W        W47683  18.223   1.992   8.183  0.2317 -0.3649  0.0337
    1W        W47684   0.202   5.335   7.240  0.1102  0.2432 -0.0029
    1W        W47685  17.743  19.604   0.222  0.2233 -0.1291 -0.0539
    1W        W47686  14.501  26.718   8.453  0.3538 -0.2635  0.1245
    1W        W47687  15.362   6.670   1.819 -0.1480  0.0760  0.4403
    1W        W47688  12.328  23.348   1.176  0.0256 -0.0811 -0.2949
    1W        W47689   4.179  20.139   0.730 -0.0288  0.1079 -0.0817
    1W        W47690  27.129  24.117   1.921 -0.1458  0.3803 -0.0676
    1W        W47691  11.497   0.137   3.499 -0.0811  0.2588  0.1428
    1W        W47692  25.253  15.621   0.914 -0.0270 -0.1808 -0.1408
    1W        W47693  13.690  17.880   8.973  0.2940 -0.1172  0.3133
    1W        W47694  11.055   3.751   7.605  0.0636 -0.0953  0.0555
    1W        W47695  20.303  19.849   7.718 -0.1088  0.1471 -0.0101
    1W        W47696  27.323  20.355   8.787 -0.1423 -0.2523 -0.1444
    1W        W47697   7.047   1.870   1.685 -0.1071 -0.1020 -0.3606
    1W        W47698   2.000  16.356   2.157 -0.0187  0.0804  0.2549
    1W        W47699  26.774  18.079   2.098  0.1756  0.2507 -0.0045
    1W        W47700  29.161  10.885   9.081 -0.2973  0.0559 -0.0375
    1W        W47701   1.895  17.864   1.255  0.3682 -0.2336  0.0662
    1W        W47702   4.853   7.717   1.622  0.0972  0.0511  0.0196
    1W        W47703   3.216   0.298   8.660 -0.4455  0.1580  0.1005
    1W        W47704  28.400  25.416   7.217 -0.1593  0.1872 -0.1453
    1W        W47705  16.250  17.334   1.124  0.1488  0.1089  0.1402
    1W        W47706   2.087  14.198   7.665  0.0944  0.1611 -0.7555
    1W        W47707  11.517  18.631   2.728 -0.1561 -0.0721 -0.0942
    1W        W47708   2.923  27.152   5.904 -0.0209 -0.2367  0.1283
    1W        W47709  21.472  10.433   8.801  0.3222 -0.0092 -0.0400
    1W        W47710  14.042  12.410   7.763 -0.0020 -0.3736  0.1169
    1W        W47711   7.120  15.132   1.663 -0.0020  0.0754  0.4566
    1W        W47712   7.028  17.379   1.884 -0.3488 -0.0528  0.1528
    1W        W47713  13.262   6.411   8.925  0.2226  0.2796 -0.2095
    1W        W47714  28.715  27.714   0.521  0.0130 -0.1976 -0.0981
    1W        W47715   1.232  10.543   6.769  0.2898  0.0099 -0.0326
    1W        W47716   9.341  15.971   1.957  0.0934 -0.0661 -0.0110
    1W        W47717   7.402   1.560   2.007 -0.1097 -0.1251 -0.5060
    1W        W47718   3.554  12.294   2.744 -0.1060 -0.1820 -0.1606
    1W        W47719   4.959  24.615   1.554 -0.0952 -0.0066 -0.1977
    1W        W47720  21.310  18.916   0.009 -0.0100  0.1836 -0.0374
    1W        W47721  21.408  25.872   0.284 -0.0616 -0.1385  0.0026
    1W        W47722   6.230  18.804   9.365 -0.0900  0.0839  0.4158
    1W        W47723   8.522  21.417   2.605  0.0029  0.2125 -0.2697
    1W        W47724  21.347  27.543   1.375 -0.2673 -0.1916  0.0883
    1W        W47725   3.969  18.599   1.573 -0.1531  0.1125 -0.2837
    1W        W47726   2.209  21.253   1.932  0.1464 -0.1027  0.5329
    1W        W47727   5.074  25.179   7.038  0.1605 -0.0647  0.2047
    1W        W47728  10.017   6.605   2.214  0.1227  0.2742  0.0422
    1W        W47729  24.265   1.302   0.059 -0.2477 -0.1131  0.0683
    1W        W47730  24.106  24.502   2.981  0.1777 -0.0180 -0.3419
    1W        W47731  15.527  12.617   1.529 -0.1142  0.4087 -0.1185
    1W        W47732  22.951   7.798   7.166 -0.0398 -0.3299 -0.2734
    1W        W47733  16.386   6.345   2.201  0.0456 -0.1615 -0.1554
    1W        W47734  15.172   6.224   9.268 -0.0348 -0.0490  0.1722
    1W        W47735  26.749  29.368   7.588 -0.1519  0.3917  0.1509
    1W        W47736  27.856  13.860   6.787 -0.1989 -0.1548 -0.0627
    1W        W47737  11.201   0.394   9.364  0.1362  0.2384  0.3141
    1W        W47738  15.800  12.397   0.430  0.2328 -0.0237 -0.2930
    1W        W47739  16.695  26.639   0.822  0.2254 -0.1738 -0.1063
    1W        W47740  18.993  13.301   6.818  0.2118  0.1540  0.0065
    1W        W47741  14.079  24.768   1.847 -0.0114  0.0530 -0.2278
    1W        W47742  13.598  16.886   6.818 -0.0656 -0.0117  0.2161
    1W        W47743  24.915  26.680   9.493  0.4026 -0.0324 -0.2289
    1W        W47744   7.140  21.350   1.892 -0.0307 -0.1935  0.0603
    1W        W47745   0.849   4.965   1.387  0.4038 -0.0335 -0.2728
    1W        W47746  21.810  22.660   6.762 -0.2132  0.1898 -0.2406
    1W        W47747   1.838   0.362   7.777 -0.2549 -0.2510  0.1303
    1W        W47748  11.221   3.163   9.249 -0.2992 -0.1625  0.1903
    1W        W47749  21.760   1.081   2.375 -0.1688  0.1992  0.1832
    1W        W47750  15.203   8.346   0.559 -0.1132  0.0674 -0.0724
    1W        W47751  23.321   6.777   8.373  0.2312 -0.0805 -0.0761
    1W        W47752  19.171  18.914   0.119  0.1400 -0.0314 -0.0892
    1W        W47753   9.572   2.621   8.900  0.3532 -0.0267 -0.0522
    1W        W47754   4.922  18.497   6.590  0.1263 -0.2341 -0.1654
    1W        W47755   7.464   0.585   9.411  0.3964 -0.3537 -0.0847
    1W        W47756  24.062  28.975   7.625  0.1753 -0.0249  0.0112
    1W        W47757  15.597  22.169   6.546 -0.1085  0.1949 -0.0898
    1W        W47758   6.725  17.583   7.234 -0.1343  0.1414  0.1613
    1W        W47759  15.026  27.710   0.901 -0.2807 -0.0420  0.1041
    1W        W47760  18.026  18.291   7.149  0.0751  0.1389  0.0539
    1W        W47761  11.519  24.436   1.220 -0.1696  0.2675 -0.0722
    1W        W47762   2.802  14.201   2.861  0.0665 -0.0258  0.0333
    1W        W47763   0.895   2.100   8.701 -0.3197  0.3061 -0.2238
    1W        W47764  16.569  24.445   0.383  0.3251 -0.0400  0.0583
    1W        W47765  21.759  25.511   1.780 -0.0623  0.1234 -0.0345
    1W        W47766  28.989  13.561   8.533  0.0623 -0.1726 -0.1528
    1W        W47767  11.176   3.787   9.512  0.1777 -0.0091  0.0615
    1W        W47768  10.975   2.257   0.640  0.1732  0.2877  0.2383
    1W        W47769  22.074   8.442   8.131 -0.0114 -0.3215  0.0919
    1W        W47770  11.327   6.885   7.525 -0.3143 -0.1876  0.0723
    1W        W47771   4.762   8.162   1.302  0.0454 -0.2351 -0.2227
    1W        W47772  15.178   6.534   2.698  0.0760  0.0593 -0.1789
    1W        W47773   2.280  20.503   2.084  0.0659 -0.1282  0.1500
    1W        W47774   3.825  25.649   7.415  0.1522 -0.2741 -0.1869
    1W        W47775  16.494  17.275   8.495  0.3218 -0.0108  0.1907
    1W        W47776   1.689   7.666   9.355  0.0675 -0.3879  0.2888
    1W        W47777  13.393  13.656   9.218  0.0821  0.0667 -0.2130
    1W        W47778  17.812  18.345   0.244 -0.3667  0.0373 -0.1605
    1W        W47779  24.821  11.479   7.611 -0.0602  0.4856 -0.0142
    1W        W47780   9.985  22.190   5.303 -0.0230 -0.0606  0.0177
    1W        W47781  23.011   7.757   1.801 -0.2649  0.1147  0.0513
    1W        W47782  19.456  22.180   0.347  0.0621  0.0427 -0.2377
    1W        W47783  17.709   2.517   1.155 -0.1833  0.0793  0.0382
    1W        W47784   2.667  17.231   0.176 -0.0276  0.1173  0.0722
    1W        W47785   4.893  23.166   5.962 -0.1697 -0.1383  0.0595
    1W        W47786  19.550  25.993   0.499 -0.2522  0.0934  0.0214
    1W        W47787  13.854  29.628   7.718  0.1825  0.0442 -0.1878
    1W        W47788  10.421   6.414   0.341  0.0175 -0.0520 -0.3334
    1W        W47789   0.836  23.613   8.770 -0.1756 -0.1602  0.1252
    1W        W47790  27.045  18.186   8.203  0.0757 -0.0854 -0.2211
    1W        W47791   2.308  14.391   1.190 -0.1735 -0.1874  0.1969
    1W        W47792  11.613  23.407   8.919 -0.1139 -0.2957  0.1801
    1W        W47793   1.896  27.048   6.152  0.0386 -0.0991  0.0207
    1W        W47794  19.731  14.945   7.542  0.1027  0.5306 -0.4109
    1W        W47795   4.369   6.692   0.998  0.0213  0.2147 -0.3610
    1W        W47796   4.518  11.363   8.263 -0.1031  0.2380 -0.1107
    1W        W47797   3.451  21.386   2.830 -0.1141  0.0092 -0.0464
    1W        W47798  20.158  13.907   8.456 -0.4722 -0.0822 -0.1595
    1W        W47799  27.601  16.850   3.128 -0.0496  0.3204 -0.1616
    1W        W47800   6.677  29.523   2.531  0.0197 -0.2320  0.0826
    1W        W47801   3.921   8.112   0.646 -0.1061  0.1836  0.3804
    1W        W47802  14.031   1.562   0.282  0.2565 -0.3578 -0.1467
    1W        W47803   1.471  19.725   8.069  0.0916 -0.1097  0.0476
    1W        W47804  16.210  12.828   7.307  0.1927 -0.0277  0.1234
    1W        W47805  23.114  28.317   2.927 -0.0287  0.0102 -0.0855
    1W        W47806  12.210   4.938   0.072  0.1110 -0.4277 -0.1453
    1W        W47807  16.839  28.200   8.204  0.0654 -0.3146 -0.1017
    1W        W47808  15.921  28.546   7.387  0.2982  0.0954 -0.1974
    1W        W47809   8.091   7.897   8.598  0.1001 -0.0014  0.0902
    1W        W47810   5.133   0.917   9.179  0.2564 -0.4150 -0.1255
    1W        W47811  18.814  29.830   1.295 -0.0500 -0.1730  0.0157
    1W        W47812   3.113  14.751   6.289 -0.3566 -0.1523 -0.0856
    1W        W47813  17.288  18.401   0.415 -0.0582  0.0926  0.2476
    1W        W47814   6.173   9.117   6.683  0.0354  0.1130 -0.1464
    1W        W47815  26.911  19.407   1.125 -0.1577  0.0575 -0.1945
    1W        W47816  14.574   2.356   8.048 -0.3070 -0.0016  0.1256
    1W        W47817  14.572  24.876   6.487 -0.1970 -0.1626 -0.4047
    1W        W47818  19.056  29.806   2.206  0.1950 -0.0532 -0.0459
    1W        W47819  15.285  19.275   8.191 -0.0400  0.0463 -0.0914
    1W        W47820  17.059   4.981   7.677  0.0140  0.4102  0.1627
    1W        W47821   5.705  16.953   0.714 -0.0804 -0.3858  0.1045
    1W        W47822  14.001  14.815   0.297 -0.4744  0.0382  0.5142
    1W        W47823  16.070  24.031   8.790 -0.1742  0.0762 -0.3945
    1W        W47824  16.399   4.549   0.019 -0.1572 -0.0134  0.1353
    1W        W47825   7.284  10.524   9.111  0.0165 -0.0236  0.2917
    1W        W47826   9.821   7.493   6.709  0.0524 -0.0669 -0.3995
    1W        W47827  26.671   2.252   1.460  0.1643 -0.2058 -0.1302
    1W        W47828   6.998   3.642   8.493 -0.1267 -0.1179 -0.0472
    1W        W47829   2.105  24.531   8.438  0.1235  0.2260 -0.1001
    1W        W47830   6.931  26.446   6.544 -0.4880 -0.3004  0.3858
    1W        W47831  15.144   1.656   3.558  0.0052  0.0548 -0.2575
    1W        W47832   7.763   5.061   1.735  0.1482  0.1428 -0.1185
    1W        W47833   1.835  26.131   5.724 -0.1589 -0.2434 -0.1342
    1W        W47834  18.258  27.928   7.097 -0.1127 -0.0805  0.1013
    1W        W47835   3.308  27.893   0.356  0.1326 -0.2713  0.0758
    1W        W47836  27.096   3.734   0.144  0.3467  0.1095 -0.3887
    1W        W47837   6.612  22.642   9.256  0.1054 -0.0354 -0.0795
    1W        W47838  25.292  15.046   2.131 -0.1006  0.2162  0.1786
    1W        W47839  11.806  17.997   9.123  0.1460  0.1904 -0.2145
    1W        W47840  12.105  23.426   9.152 -0.0584  0.3706  0.1038
    1W        W47841   9.938  19.175   1.557 -0.2206 -0.4811  0.0645
    1W        W47842  27.049   9.112   0.149  0.1979 -0.0487  0.0619
    1W        W47843  11.063   6.272   1.175 -0.1736 -0.2016  0.1813
    1W        W47844   8.609   8.104   6.595 -0.3286 -0.2760  0.0110
    1W        W47845   4.029   9.885   2.169 -0.2870 -0.1662  0.0844
    1W        W47846   3.857  15.904   8.016  0.1382  0.1798 -0.0998
    1W        W47847  20.214   9.084   9.175 -0.2604 -0.3718  0.0645
    1W        W47848   3.675   8.654   8.939 -0.0744  0.4047  0.3993
    1W        W47849  12.961   2.284   1.537 -0.0098 -0.1343 -0.0378
    1W        W47850  29.693  11.867   0.059 -0.0064 -0.0361 -0.0865
    1W        W47851   5.047  17.969   0.830  0.1879  0.6285 -0.1461
    1W        W47852  14.384  29.313   2.525  0.4105  0.1518  0.0235
    1W        W47853   2.814  21.596   2.122 -0.2898 -0.0301  0.1057
    1W        W47854  20.261  18.100   8.159 -0.0769  0.0183 -0.2283
    1W        W47855  10.286   4.763   9.101 -0.0890 -0.0417  0.0008
    1W        W47856  23.309   2.964   9.244  0.1711 -0.0821  0.1290
    1W        W47857  21.928  16.107   2.360 -0.1171  0.0743  0.0367
    1W        W47858  22.321  10.485   2.631 -0.3070 -0.1251  0.5799
    1W        W47859   0.255   3.832   0.127  0.0817 -0.2324 -0.2960
    1W        W47860  28.584   8.618   9.331 -0.3046 -0.1206 -0.1952
    1W        W47861  10.752  16.424   2.212 -0.0561 -0.1764  0.0000
    1W        W47862  19.923  16.187   1.400 -0.1728 -0.0243 -0.2252
    1W        W47863  27.589  19.368   0.239 -0.2028  0.2674 -0.1466
    1W        W47864  15.690   0.679   3.295  0.4954  0.0380  0.0414
    1W        W47865   4.125  22.313   0.133 -0.0944 -0.0956  0.1760
    1W        W47866  17.723  12.790   9.367 -0.0814  0.1897 -0.1675
    1W        W47867  14.422  14.531   2.413 -0.1826  0.0522  0.0904
    1W        W47868  18.984   8.505   1.714 -0.1171 -0.1272 -0.1759
    1W        W47869  26.368  13.707   1.518 -0.1351 -0.2229 -0.2796
    1W        W47870  15.469   5.532   9.223 -0.2827  0.0540 -0.3387
    1W        W47871   1.669  19.079   1.597 -0.3749 -0.2062 -0.1032
    1W        W47872  27.786   9.976   1.723  0.2237  0.2168  0.1832
    1W        W47873  19.603  28.176   6.850  0.1682  0.0406  0.3814
    1W        W47874  16.785  24.791   0.655 -0.1540  0.2593  0.0417
    1W        W47875   0.445  11.456   1.401 -0.1881 -0.2495  0.0439
    1W        W47876  22.979   7.726   0.324  0.0036  0.1885 -0.0102
    1W        W47877   4.235  17.183   3.035  0.2704  0.1717 -0.0062
    1W        W47878  16.293  15.045   6.776  0.1875 -0.3496  0.3499
    1W        W47879   6.050  13.584   1.710  0.3616 -0.2439 -0.0433
    1W        W47880  12.271   6.443   0.859 -0.0807  0.1556 -0.1569
    1W        W47881   3.069   4.942   7.163  0.1777  0.1399 -0.0104
    1W        W47882   0.048  28.339   7.238  0.1594  0.5102 -0.4854
    1W        W47883   0.134  10.714   8.521 -0.3796 -0.1380 -0.1514
    1W        W47884  28.833  14.742   7.514  0.1308  0.2308  0.3166
    1W        W47885  14.516   0.154   8.342 -0.3743 -0.1676  0.2896
    1W        W47886  13.975  13.021   2.609 -0.0898  0.1852 -0.1842
    1W        W47887  20.282  23.305   9.356 -0.1034 -0.2313 -0.3404
    1W        W47888   5.988  23.694   8.515  0.2964  0.1923 -0.3499
    1W        W47889  22.157   1.780   2.737  0.1435 -0.1912 -0.0816
    1W        W47890   5.427  13.616   0.009 -0.0179 -0.0151  0.1301
    1W        W47891   8.085  20.169   8.573  0.3122 -0.1737  0.2803
    1W        W47892  28.775  15.190   1.209 -0.1334 -0.1252 -0.1094
    1W        W47893  14.117  19.457   7.603 -0.3583 -0.0035 -0.1381
    1W        W47894   5.495   2.308   1.953  0.0019 -0.0922 -0.1368
    1W        W47895  10.913   0.063   7.550  0.0964  0.0871  0.1620
    1W        W47896   5.526   0.758   8.834 -0.2413 -0.5170  0.0337
    1W        W47897  28.193  26.895   2.092 -0.0799  0.1627 -0.1251
    1W        W47898   8.197  27.218   8.768 -0.0541 -0.2839 -0.4007
    1W        W47899   4.776  18.308   0.587 -0.0003  0.1072  0.0375
    1W        W47900   5.613  19.537   0.199 -0.0851 -0.1578  0.0647
    1W        W47901   2.243   9.007   9.392 -0.0857 -0.2756 -0.0977
    1W        W47902   8.448   5.785   2.677 -0.1374  0.3112 -0.0470
    1W        W47903   8.777   2.844   7.964 -0.1465  0.2731 -0.2634
    1W        W47904   8.955  11.412   7.242  0.1355  0.1799  0.0540
    1W        W47905  23.760   9.291   1.545 -0.1562 -0.1243  0.0162
    1W        W47906   6.629  13.670   1.470  0.1155  0.2065 -0.4744
    1W        W47907  16.170   1.043   8.691 -0.1228  0.1645  0.0996
    1W        W47908  25.758  28.889   1.789 -0.4015  0.0034 -0.0282
    1W        W47909  17.321   7.134   3.277 -0.2488  0.0995  0.1362
    1W        W47910  27.144  22.950   0.880  0.0196 -0.1769 -0.1587
    1W        W47911   9.522  23.741   7.646  0.2363 -0.0923  0.1223
    1W        W47912  16.956  11.888   9.489  0.0450 -0.4766 -0.1106
    1W        W47913  23.430  23.612   0.413 -0.1324  0.3463 -0.1651
    1W        W47914  28.184  28.473   8.786  0.0378 -0.2991 -0.0564
    1W        W47915  15.532  29.041   8.156 -0.1058  0.0447  0.2643
    1W        W47916   6.024  20.764   8.411  0.0714  0.1654 -0.0535
    1W        W47917   0.006  11.526   1.697  0.2215 -0.1103  0.2469
    1W        W47918   5.020  11.272   6.739  0.1551  0.0804 -0.0560
    1W        W47919  28.742  27.710   1.785  0.2547 -0.0788  0.3563
    1W        W47920   1.819  16.585   0.549 -0.1806  0.2912 -0.3473
    1W        W47921  18.137  21.918   0.578  0.3093 -0.1605  0.0845
    1W        W47922  22.969  22.792   7.676  0.0646 -0.2840 -0.0044
    1W        W47923  20.405  11.419   1.690 -0.3220 -0.3863  0.3619
    1W        W47924  13.867  27.737   0.897  0.1158 -0.1723  0.1098
    1W        W47925  24.614  12.442   0.680 -0.0486  0.1370 -0.0906
    1W        W47926   5.722  24.661   9.262 -0.3281  0.1515 -0.2306
    1W        W47927  15.296   1.869   0.791 -0.3590 -0.1304  0.0426
    1W        W47928  21.707  16.308   6.050  0.0679 -0.1383 -0.3034
    1W        W47929  16.097   5.324   3.330 -0.0836 -0.3235  0.0349
    1W        W47930   3.943   7.476   2.696  0.0012  0.1120 -0.1093
    1W        W47931  21.231   7.828   0.018 -0.0303 -0.0042  0.0493
    1W        W47932  25.449  17.904   7.463 -0.0863 -0.0650 -0.0472
    1W        W47933  25.570  20.465   8.891 -0.1619 -0.3472  0.0166
    1W        W47934   1.991  23.833   8.954  0.1461 -0.1641  0.3320
    1W        W47935  23.076  15.939   7.215  0.0932  0.0874  0.2433
    1W        W47936  11.845  12.141   7.187  0.0257  0.1546 -0.1275
    1W        W47937  23.555  14.382   0.167 -0.2428  0.0211  0.0980
    1W        W47938   1.062   8.110   8.430  0.1970 -0.2229 -0.0482
    1W        W47939  16.992   1.254   8.326  0.1252 -0.2233 -0.0071
    1W        W47940  14.212   6.791   1.425 -0.1269  0.0664  0.1705
    1W        W47941  19.584  20.682   1.031  0.0762 -0.1202 -0.1500
    1W        W47942   0.895  25.298   9.092  0.1789  0.1795  0.0372
    1W        W47943  18.118  24.878   0.067  0.2292 -0.0053 -0.0525
    1W        W47944  17.088  21.633   5.014 -0.0681  0.0791 -0.3731
    1W        W47945  14.814   1.569   0.817  0.0346  0.0685 -0.1174
    1W        W47946  28.463  25.514   1.192 -0.2925  0.2442 -0.0553
    1W        W47947   5.076  11.679   1.549  0.2909  0.4388 -0.0852
    1W        W47948  17.659  10.377   0.632 -0.0783 -0.1438 -0.1832
    1W        W47949  19.580   6.475   3.261 -0.3966  0.0151  0.1920
    1W        W47950  13.052   4.746   8.862 -0.3094  0.1221  0.1387
    1W        W47951  14.847  27.291   9.358  0.1472  0.2580 -0.2512
    1W        W47952  23.244  20.410   7.663  0.1629 -0.2243  0.0452
    1W        W47953  17.459  14.493   7.186 -0.0963 -0.2113  0.1890
    1W        W47954  15.393   8.892   3.174  0.3299  0.1210 -0.2451
    1W        W47955  10.455  16.002   1.217 -0.2350 -0.1989 -0.0621
    1W        W47956  28.173  27.664   6.932 -0.1128  0.1582  0.2673
    1W        W47957   5.473  12.553   9.136 -0.2826 -0.0571 -0.1758
    1W        W47958   4.151  20.699   6.932 -0.0777 -0.2986 -0.1975
    1W        W47959  11.057  21.573   8.733 -0.0903  0.1163 -0.1179
    1W        W47960  21.906   5.932   8.724  0.0571  0.1263 -0.2089
    1W        W47961   9.371  12.277   6.706 -0.0553  0.1019  0.3078
    1W        W47962  14.105   3.573   0.950 -0.0448  0.0213  0.1641
    1W        W47963   8.823   6.188   3.397 -0.1450  0.1737  0.1023
    1W        W47964  16.713   3.242   3.419 -0.0221 -0.2090  0.1327
    1W        W47965   7.917   6.795   7.597  0.0552  0.1205  0.0340
    1W        W47966  11.536  26.625   7.069  0.1395 -0.1290  0.0591
    1W        W47967  10.967  14.075   8.059  0.5271 -0.1831  0.1435
    1W        W47968   5.961  18.406   1.982  0.2674 -0.1441 -0.0476
    1W        W47969  28.938   8.724   0.968 -0.2823 -0.1044  0.0765
    1W        W47970  12.977  26.815   2.068  0.0623  0.0872 -0.3169
    1W        W47971  23.333   4.689   1.261  0.0778  0.3085  0.3157
    1W        W47972  10.380  12.212   0.113  0.2428  0.1670 -0.2894
    1W        W47973  28.428  24.427   7.027 -0.0983 -0.0507  0.1157
    1W        W47974  11.180   6.776   1.339 -0.2630 -0.1430  0.0794
    1W        W47975  29.068   8.361   7.468 -0.2695 -0.2298  0.5252
    1W        W47976   8.813  17.094   9.491 -0.1304  0.0187 -0.0685
    1W        W47977   8.174  26.806   1.934 -0.0417 -0.0308  0.0541
    1W        W47978  14.934  24.064   5.832  0.0039 -0.1931 -0.2314
    1W        W47979   5.860  17.383   9.293  0.0243  0.1780 -0.1706
    1W        W47980  14.218   3.664   3.028 -0.0895  0.1850 -0.3283
    1W        W47981   4.522  21.628   1.808 -0.2219  0.1102 -0.0510
    1W        W47982  11.787  24.735   8.453  0.0574 -0.3574 -0.0789
    1W        W47983  27.935  14.526   7.573 -0.3986  0.0085  0.0573
    1W        W47984  13.639   6.860   2.055  0.0808  0.0941 -0.2929
    1W        W47985  29.418  19.864   0.383  0.0217 -0.0073  0.0107
    1W        W47986   3.005  26.887   1.297 -0.2209 -0.1205 -0.0458
    1W        W47987  17.259   3.642   4.068  0.3835  0.0779 -0.2323
    1W        W47988  22.105  15.965   1.449  0.3450 -0.0117 -0.0899
    1W        W47989   8.880  24.835   7.674  0.0291 -0.3115  0.0226
    1W        W47990   7.259   3.306   7.386  0.0707 -0.1164 -0.2613
    1W        W47991  29.551  25.781   2.169 -0.0235 -0.2894 -0.0346
    1W        W47992  26.634   1.352   1.774  0.3319  0.1991 -0.3380
    1W        W47993  28.356  20.161   0.592  0.0015  0.2161  0.4281
    1W        W47994  10.429  24.309   5.940  0.3113 -0.3498 -0.2757
    1W        W47995  26.962   3.885   1.047 -0.1052  0.1391 -0.0194
    1W        W47996  10.971  17.991   7.322  0.1169  0.0945  0.1886
    1W        W47997   3.415  12.354   1.210 -0.1793 -0.0196  0.0149
    1W        W47998  14.778  19.230   1.010 -0.1283  0.1259  0.0518
    1W        W47999   5.605  13.952   0.782 -0.0067 -0.1005 -0.2021
    1W        W48000  25.206  23.542   9.459  0.2622 -0.0776 -0.1036
    1W        W48001  20.141  11.418   0.180  0.1143 -0.1314 -0.2832
    1W        W48002  28.973  25.398   1.454 -0.0503  0.1065  0.0840
    1W        W48003  20.683   5.425   2.629 -0.1484 -0.1759  0.1202
    1W        W48004  22.128   8.425   0.155  0.2298  0.0378 -0.2121
    1W        W48005  13.162  25.508   5.796 -0.3000 -0.2530  0.0280
    1W        W48006  11.147  11.846   7.763 -0.0030  0.0654 -0.0132
    1W        W48007   6.598  10.498   1.648  0.2170 -0.0427 -0.0106
    1W        W48008  19.111  11.112   2.695 -0.0224 -0.0038  0.1287
    1W        W48009  10.565  20.655   1.397 -0.3237  0.0757  0.1783
    1W        W48010   0.153   4.374   8.092  0.0258  0.3958  0.0302
    1W        W48011  22.109  25.368   7.865 -0.2688 -0.2656 -0.0593
    1W        W48012  29.842   6.091   8.118  0.0314  0.0115  0.0339
    1W        W48013   4.155   5.533   0.862  0.1083 -0.1112 -0.1498
    1W        W48014  15.466  15.519   7.262  0.0287 -0.0560  0.0543
    1W        W48015  27.509  12.985   1.020 -0.0918 -0.1171  0.1188
    1W        W48016  21.180  20.678   0.161 -0.0554  0.2560  0.0397
    1W        W48017  15.853  29.836   1.209 -0.2164  0.1315  0.3246
    1W        W48018  16.264   9.448   9.328  0.2839 -0.0514 -0.3408
    1W        W48019  18.958  11.294   1.628  0.0668 -0.1594 -0.6688
    1W        W48020   6.603  11.899   0.053  0.0941 -0.1071 -0.2908
    1W        W48021   1.820  24.125   0.651 -0.1889 -0.0492  0.3560
    1W        W48022   5.608   0.382   5.969  0.0935 -0.1202 -0.0686
    1W        W48023  26.926  25.722   2.903  0.0191  0.0078  0.0102
    1W        W48024   1.699  16.757   2.281  0.1338  0.0844 -0.1973
    1W        W48025  13.601  29.671   9.374  0.2632 -0.1486  0.1435
    1W        W48026  17.240   0.343   3.937 -0.0060  0.0056  0.3097
    1W        W48027  27.447   0.954   7.499  0.3097 -0.1568  0.0938
    1W        W48028  23.499  23.662   2.537 -0.0547 -0.1305  0.0318
    1W        W48029   9.876   6.283   3.801  0.0215 -0.0992  0.1399
    1W        W48030   1.651  23.840   7.457 -0.1129  0.1205 -0.0836
    1W        W48031   7.802  18.262   1.274  0.3081  0.1729 -0.3175
    1W        W48032   9.839   7.447   8.553  0.2095  0.0905  0.2625
    1W        W48033   7.616  29.481   9.522 -0.0830 -0.0102 -0.3234
    1W        W48034  17.673  14.219   1.645  0.1716 -0.3056  0.1047
    1W        W48035   3.805  25.852   7.968 -0.0879 -0.0680 -0.0901
    1W        W48036  15.357  16.250   8.176  0.0659  0.1269  0.1860
    1W        W48037   8.682  17.020   8.961 -0.1329  0.0798  0.0559
    1W        W48038  24.464   1.219   0.899  0.2052 -0.0357 -0.1610
    1W        W48039   2.504  15.000   0.515  0.2898  0.1655  0.0570
    1W        W48040   9.973  10.163   1.026 -0.0600  0.0032  0.1209
    1W        W48041   7.992  17.954   7.819 -0.0125  0.2646  0.1379
    1W        W48042   0.159   8.244   0.102 -0.1159  0.0272  0.0668
    1W        W48043  21.951  28.786   7.656  0.0352 -0.1651  0.0483
    1W        W48044  21.287   6.739   2.219  0.0744  0.1294 -0.2878
    1W        W48045   5.589  25.895   6.522 -0.0493 -0.0831  0.1218
    1W        W48046  29.000  20.423   7.513 -0.0517 -0.1506  0.0968
    1W        W48047  27.057  23.864   2.896 -0.1499 -0.2516  0.1123
    1W        W48048  21.528  10.905   8.561 -0.1859 -0.2615 -0.1506
    1W        W48049   7.070   4.031   0.195  0.1312 -0.2295  0.1210
    1W        W48050   2.951  14.693   2.788 -0.1588  0.0191  0.1717
    1W        W48051  19.923   6.611   2.910  0.3227 -0.1064  0.0955
    1W        W48052  23.046   3.203   8.650  0.3709 -0.0052  0.1785
    1W        W48053   7.328  27.472   0.516 -0.0968  0.1093 -0.1992
    1W        W48054   9.585  13.297   1.546 -0.2264 -0.0939 -0.1311
    1W        W48055  20.632  22.089   7.701  0.0760 -0.2371  0.0117
    1W        W48056  24.603   2.880   0.247 -0.1001 -0.1987 -0.0707
    1W        W48057  24.838   7.851   0.787  0.1989  0.3359 -0.0122
    1W        W48058  26.603  27.940   6.813 -0.1193  0.1060 -0.0261
    1W        W48059   6.728  22.889   5.458  0.1565  0.0575  0.0855
    1W        W48060   6.910  11.063   0.353  0.1798 -0.1126 -0.0129
    1W        W48061  11.562  14.265   8.540 -0.0189  0.3331 -0.3935
    1W        W48062  18.576  10.760   8.506 -0.0262  0.1352  0.2872
    1W        W48063   4.500   9.097   1.227  0.2176  0.1875  0.0229
    1W        W48064  10.222  13.665   8.628 -0.1461 -0.0024 -0.4048
    1W        W48065   6.233   7.797   1.918 -0.1748  0.0190  0.0287
    1W        W48066  11.877  11.783   9.099 -0.2112 -0.0879 -0.0600
    1W        W48067   2.277  12.489   8.625  0.0379 -0.1747  0.1280
    1W        W48068  27.230  25.227   1.863  0.0906  0.2479 -0.4060
    1W        W48069  10.257  15.734   0.259  0.0351 -0.0032  0.0921
    1W        W48070  22.603   5.684   9.340  0.3141  0.1807 -0.1675
    1W        W48071  12.427  18.604   8.830  0.0040  0.0626 -0.2217
    1W        W48072  25.086  25.227   1.465 -0.0849  0.0591  0.1047
    1W        W48073   3.948  17.932   7.687 -0.1958 -0.0230  0.0724
    1W        W48074   9.476  19.134   6.520  0.2938 -0.0093 -0.1084
    1W        W48075   3.334  21.976   6.759  0.3293 -0.2085  0.2071
    1W        W48076  23.903  25.519   2.269  0.0050  0.2141  0.0483
    1W        W48077  10.315   7.408   1.839  0.2333  0.1920  0.1289
    1W        W48078  15.188  12.432   0.683 -0.2156  0.0729  0.0832
    1W        W48079  10.975   3.918   8.773 -0.3271  0.0765  0.1493
    1W        W48080  11.646  25.646   0.119 -0.1524 -0.0483  0.2367
    1W        W48081  13.005  14.845   2.187 -0.1962 -0.1688 -0.1434
    1W        W48082  20.966  28.204   7.968  0.0974  0.0392  0.0257
    1W        W48083   9.451  10.714   7.473  0.2082 -0.2342  0.3461
    1W        W48084   6.311  20.878   1.552 -0.0479 -0.0645  0.3442
    1W        W48085  26.835  21.189   1.446  0.3183 -0.0868 -0.0393
    1W        W48086   0.676   3.257   8.541  0.0299  0.2076  0.0538
    1W        W48087  13.445  26.346   0.813  0.1324 -0.2012 -0.3110
    1W        W48088  23.350  16.406   0.790  0.1767  0.1665  0.0376
    1W        W48089  11.392  24.317   5.844  0.1924  0.1065  0.0609
    1W        W48090  17.085  14.585   6.910  0.0796 -0.0262  0.4788
    1W        W48091  17.500  28.288   2.058 -0.2376  0.0865  0.1880
    1W        W48092   1.037   7.186   6.738  0.0662  0.1569  0.3976
    1W        W48093  29.633  15.625   0.989  0.0202  0.0158 -0.0760
    1W        W48094  29.165  27.675   1.406 -0.4101 -0.2186 -0.1000
    1W        W48095   6.675   7.299   8.544  0.2319 -0.4185  0.0341
    1W        W48096  19.360   0.865   3.515 -0.5115  0.0043 -0.0509
    1W        W48097  27.671  25.939   6.851  0.1247 -0.3134 -0.2433
    1W        W48098   2.501  15.731   1.300  0.2196 -0.1044 -0.0282
    1W        W48099   5.636  17.880   1.196  0.0782  0.1689  0.1294
    1W        W48100  22.050  19.850   7.051 -0.1136  0.0035 -0.0617
    1W        W48101  29.713   4.670   1.815  0.1568 -0.1275  0.1179
    1W        W48102  18.092  23.309   6.215  0.0517  0.4724  0.1936
    1W        W48103   6.068  12.780   7.117  0.1036  0.2716  0.1876
    1W        W48104  16.105  20.453   6.986  0.4166 -0.3053  0.0979
    1W        W48105  21.595  16.663   7.124  0.2186 -0.1315 -0.0644
    1W        W48106  10.067   2.429   0.217  0.1669  0.2448 -0.1029
    1W        W48107  22.248  29.772   9.369 -0.1238  0.1788  0.2495
    1W        W48108  17.895  29.466   7.865 -0.0593  0.0320 -0.0349
    1W        W48109  19.766  13.140   9.026  0.2070 -0.1545  0.0804
    1W        W48110   1.451  23.935   8.180  0.3355  0.0791  0.2519
    1W        W48111  18.438  17.617   6.280 -0.0433  0.1021 -0.1510
    1W        W48112   2.546   6.706   8.287 -0.2143  0.0226  0.5064
    1W        W48113   5.495   8.693   9.036 -0.0692  0.0650 -0.0156
    1W        W48114  15.218  21.344   0.693 -0.2273  0.2754  0.3549
    1W        W48115  20.471   0.126   1.964  0.3356 -0.3895 -0.3158
    1W        W48116  15.125  14.041   1.376  0.0067 -0.2422 -0.0381
    1W        W48117  19.929  25.350   6.504 -0.0178 -0.2631 -0.2221
    1W        W48118   3.132  28.065   6.303 -0.0495 -0.1048  0.0775
    1W        W48119   3.853  26.745   0.429  0.0993  0.1577  0.1255
    1W        W48120  21.475  29.194   9.323  0.1018  0.1279 -0.0351
    1W        W48121  12.392  16.369   1.305 -0.0567  0.1339  0.1187
    1W        W48122  19.654  24.245   9.362  0.0518  0.1264  0.3785
    1W        W48123  26.208   8.957   8.019 -0.1956 -0.3475 -0.0601
    1W        W48124   9.442   5.117   0.521  0.2949  0.0712 -0.1376
    1W        W48125  29.315  28.119   9.190  0.0413 -0.2042  0.0729
    1W        W48126   0.060   2.714   7.020  0.0484  0.0905  0.1866
    1W        W48127   3.300  23.178   9.494  0.3424 -0.1731  0.2374
    1W        W48128  26.882  23.953   9.528 -0.2531 -0.0417  0.1731
    1W        W48129  27.491   3.063   7.530 -0.1342 -0.1459 -0.0155
    1W        W48130  22.343  28.157   6.836  0.0467 -0.1175 -0.1147
    1W        W48131   4.666   5.921   2.117 -0.0593  0.0933 -0.1633
    1W        W48132  16.985   9.174   0.580  0.1013  0.0862  0.1575
    1W        W48133  13.877   1.294   1.918  0.0062  0.1864  0.1602
    1W        W48134   4.277  20.777   9.164  0.0628  0.1404  0.1731
    1W        W48135   3.747  25.389   7.830  0.0047  0.0898 -0.1030
    1W        W48136  19.616  28.468   7.580 -0.0720 -0.2178 -0.2776
    1W        W48137  16.474   5.635   3.143  0.0705 -0.3694  0.0243
    1W        W48138  10.341   0.786   3.390  0.2174 -0.2126  0.1111
    1W        W48139   7.608  12.814   0.867  0.1894  0.0151  0.1966
    1W        W48140  14.744  21.218   1.123  0.0381  0.0009  0.0515
    1W        W48141   1.397  15.937   6.531 -0.0109  0.3692  0.0198
    1W        W48142  19.540  19.008   9.331  0.3261 -0.1546 -0.1662
    1W        W48143  17.620   1.101   0.089  0.1746  0.0733 -0.0985
    1W        W48144  24.685   1.479   9.247  0.1166  0.2191 -0.0861
    1W        W48145   1.474  29.137   1.125 -0.2367 -0.1340  0.1059
    1W        W48146  16.034   3.030   4.175  0.1604 -0.3897 -0.0444
    1W        W48147  21.151  19.043   6.370  0.0476  0.2846  0.0286
    1W        W48148  27.269   4.879   7.449 -0.0689  0.1531  0.1674
    1W        W48149  23.583  10.623   2.187  0.0464  0.0043  0.2841
    1W        W48150  21.076  13.038   7.347  0.0214 -0.0858  0.1308
    1W        W48151  20.938  19.576   0.844 -0.1559  0.1128 -0.0134
    1W        W48152   1.136   6.401   1.091  0.0428  0.0219  0.2319
    1W        W48153  14.625  17.800   2.254 -0.0024  0.2187 -0.0673
    1W        W48154  23.076  27.823   0.518 -0.0065  0.4123 -0.1782
    1W        W48155  11.957  20.621   6.358 -0.0752 -0.4162 -0.0770
    1W        W48156   8.379   7.151   6.286  0.1626 -0.0453 -0.1595
    1W        W48157  12.058  19.317   0.010  0.0593 -0.3344  0.1890
    1W        W48158   9.459  12.483   2.699 -0.0248 -0.0354 -0.1168
    1W        W48159  28.974  13.374   2.300 -0.1253 -0.0563 -0.1417
    1W        W48160   9.220   1.331   0.691  0.5773 -0.2087 -0.1722
    1W        W48161   4.941   0.675   8.791  0.1680 -0.0363  0.0838
    1W        W48162  27.226  18.664   2.712  0.1684  0.0047  0.4077
    1W        W48163  25.370  19.768   2.469  0.2280 -0.1252  0.2674
    1W        W48164   5.347   6.946   3.619  0.0371 -0.0472  0.2845
    1W        W48165  21.142  28.069   6.976 -0.2564 -0.0801  0.0864
    1W        W48166  26.410  19.156   8.333 -0.0073  0.1957 -0.0170
    1W        W48167  13.417  27.172   1.263  0.3275 -0.2376 -0.1814
    1W        W48168   1.900   3.889   7.296 -0.0012 -0.2897 -0.0690
    1W        W48169   6.385  19.817   6.936  0.2399 -0.1952  0.0590
    1W        W48170   3.647  26.255   7.789  0.0346 -0.0413  0.3592
    1W        W48171   7.497   9.443   7.426  0.2878  0.1355 -0.0392
    1W        W48172  18.043  14.214   6.573 -0.2180  0.0369  0.2262
    1W        W48173   3.242  26.038   6.772 -0.1931  0.0361  0.2876
    1W        W48174  22.623   6.255   7.949  0.0900  0.2004 -0.1194
    1W        W48175  20.905   9.295   0.323 -0.5344  0.2017 -0.0393
    1W        W48176  21.793   6.639   9.288 -0.0045 -0.1068  0.0090
    1W        W48177  28.324  24.277   0.797 -0.0060 -0.2162  0.2384
    1W        W48178  26.490  23.880   9.171  0.0183  0.4260  0.2087
    1W        W48179   0.647  11.632   8.433  0.1001 -0.2511 -0.0688
    1W        W48180  11.214   2.110   2.304 -0.0378 -0.0565 -0.2164
    1W        W48181  14.204  28.821   9.448 -0.0841  0.4527 -0.1524
    1W        W48182  15.259   7.827   9.307  0.0743 -0.0853 -0.0090
    1W        W48183  21.064   9.281   7.587 -0.0637  0.4132  0.2803
    1W        W48184  24.727  10.072   2.191  0.2645 -0.1661 -0.1167
    1W        W48185  10.887   4.693   4.114 -0.0015  0.0920 -0.1128
    1W        W48186   0.377   3.112   7.969  0.0314  0.1852 -0.1688
    1W        W48187   6.854  23.964   0.317  0.0609 -0.2588  0.1889
    1W        W48188  15.323  17.266   8.051  0.0525  0.1752 -0.0039
    1W        W48189  10.545  16.631   8.615  0.2364 -0.0129 -0.0347
    1W        W48190   3.819   0.957   7.621 -0.1914 -0.0951  0.1090
    1W        W48191  26.378  20.381   8.290  0.0403  0.3646  0.0774
    1W        W48192   7.448  22.738   8.146  0.0160 -0.0755  0.0412
    1W        W48193   3.919  16.542   8.584 -0.2443 -0.1899  0.1032
    1W        W48194  18.100   7.893   2.542  0.1408 -0.2228 -0.0771
    1W        W48195   1.941  29.255   0.928  0.2842 -0.1624 -0.1787
    1W        W48196   6.667  17.319   6.510 -0.1610  0.1409  0.3157
    1W        W48197  25.977  15.093   0.204  0.2986  0.2011 -0.2089
    1W        W48198  23.490  27.289   2.233 -0.0858  0.1477  0.0734
    1W        W48199   3.408   5.747   0.661 -0.0752 -0.0806 -0.0937
    1W        W48200  25.353   3.120   0.199 -0.2280 -0.3060 -0.2822
    1W        W48201  16.952  14.322   6.510  0.0853 -0.2887  0.1984
    1W        W48202  21.990  25.295   0.924 -0.1431 -0.1754 -0.1301
    1W        W48203  23.216  17.079   7.617 -0.2886  0.1042 -0.2722
    1W        W48204  25.527   2.301   1.311 -0.0228  0.1247  0.0448
    1W        W48205   6.051  25.202   2.449  0.2133 -0.0396 -0.0467
    1W        W48206   2.557   5.980   7.142  0.0627  0.0447 -0.1313
    1W        W48207  23.071  18.165   9.334 -0.1892 -0.3754  0.0889
    1W        W48208  15.239  11.167   8.169 -0.0943 -0.2777  0.1627
    1W        W48209  19.365  25.500   1.274 -0.1215  0.0186  0.0474
    1W        W48210  21.332  11.978   0.308 -0.1834  0.0028 -0.0055
    1W        W48211  26.190  10.569   1.648 -0.2106  0.0363  0.1133
    1W        W48212  11.427   1.644   8.278 -0.3450  0.0551  0.1294
    1W        W48213  15.872   3.060   2.112  0.0257 -0.0671 -0.0922
    1W        W48214   2.026   0.435   8.241  0.1892 -0.1467  0.0247
    1W        W48215   2.721  16.070   7.693  0.0135  0.2111  0.0685
    1W        W48216   7.664  19.415   5.788  0.0431 -0.3536  0.0756
    1W        W48217   5.596  22.199   5.327 -0.0620 -0.0939  0.0187
    1W        W48218  12.673  10.614   8.467 -0.1076 -0.0068  0.1507
    1W        W48219  28.439   2.025   2.705 -0.1759  0.0410 -0.0031
    1W        W48220  13.528   7.857   1.453  0.0438  0.0025  0.2836
    1W        W48221  28.962  20.208   1.148 -0.1980 -0.4565 -0.0516
    1W        W48222  28.110  13.264   0.043 -0.1065  0.1818 -0.4333
    1W        W48223  18.150   7.016   1.028 -0.1996  0.1169 -0.0994
    1W        W48224  21.715  20.919   7.077  0.0079  0.2599  0.0962
    1W        W48225  26.940   1.803   1.780 -0.1453 -0.1994  0.1787
    1W        W48226   5.232  24.726   7.105  0.0146  0.0857  0.0932
    1W        W48227  28.051  27.491   9.524  0.0662  0.0089  0.0604
    1W        W48228   0.144  15.024   1.061 -0.2497 -0.0338 -0.1116
    1W        W48229  16.247  15.812   1.575  0.3633  0.2105 -0.1799
    1W        W48230   3.915   1.871   9.040 -0.2718 -0.0792 -0.0084
    1W        W48231  21.833  20.189   8.924  0.0682  0.0012 -0.0141
    1W        W48232  15.739  15.473   1.867 -0.0016  0.0660  0.1013
    1W        W48233   4.682  25.073   9.528  0.0529 -0.0546  0.2672
    1W        W48234   7.964   7.959   7.968  0.2864 -0.0097 -0.1206
    1W        W48235  12.384   3.831   2.852  0.0572 -0.2577 -0.1307
    1W        W48236   5.049  18.075   6.846  0.1347  0.0557  0.0308
    1W        W48237  14.515  18.587   6.134 -0.2364 -0.0894  0.0891
    1W        W48238  19.427  19.173   6.732 -0.1603  0.2644  0.3726
    1W        W48239  18.826  23.524   8.600 -0.3060  0.0248 -0.2414
    1W        W48240   3.301  11.267   7.194  0.1804 -0.0599 -0.1541
    1W        W48241   6.255  10.888   0.923  0.3368  0.0858  0.2038
    1W        W48242   3.289   8.620   6.598  0.0351 -0.3760  0.2948
    1W        W48243  21.634   1.277   9.013 -0.4140 -0.2745  0.0871
    1W        W48244   7.008   0.801   9.216 -0.2751  0.3559 -0.3465
    1W        W48245  15.492  19.195   0.513 -0.1096 -0.0229  0.1607
    1W        W48246  28.867  11.318   9.195 -0.1943  0.0181 -0.2374
    1W        W48247  19.313   6.374   7.720 -0.0778  0.2230 -0.1367
    1W        W48248  13.238  28.906   3.192  0.0751  0.3218 -0.4054
    1W        W48249  21.566   0.747   9.021  0.1378  0.1712  0.1289
    1W        W48250   8.633  11.663   0.432 -0.2179 -0.2998 -0.0231
    1W        W48251   7.017  14.628   0.329 -0.1315  0.2550 -0.0404
    1W        W48252  26.919   8.143   0.217 -0.0240 -0.2552 -0.0383
    1W        W48253  13.159   3.822   3.284 -0.1587  0.0437 -0.2546
    1W        W48254   9.272  17.877   8.736  0.4700 -0.1126 -0.0436
    1W        W48255  23.630   9.647   8.412  0.1515 -0.0223 -0.0625
    1W        W48256  21.214  19.183   0.950 -0.1215  0.0638 -0.1194
    1W        W48257   9.616   7.511   7.167  0.0508  0.3265 -0.1636
    1W        W48258  15.686  28.942   6.999  0.1395  0.0528  0.1655
    1W        W48259  13.106   9.960   7.542 -0.3031 -0.1260  0.0361
    1W        W48260  24.438  29.257   0.977  0.1403  0.0727 -0.0642
    1W        W48261  15.909  26.391   1.904 -0.0732  0.1183  0.1558
    1W        W48262  18.879   5.862   1.072 -0.1438 -0.1720  0.2746
    1W        W48263  17.915  13.566   7.195  0.1852 -0.2636  0.2119
    1W        W48264  12.718  26.460   2.337  0.0565 -0.1067  0.1202
    1W        W48265   1.990  21.308   8.243 -0.1887  0.0888  0.0443
    1W        W48266   1.754  14.465   8.429  0.1152  0.0990 -0.3857
    1W        W48267   4.007   7.584   1.288  0.2243 -0.1701  0.2483
    1W        W48268  27.886   8.554   8.685 -0.2972 -0.0114  0.2960
    1W        W48269   8.991  19.926   9.168 -0.1655  0.2195  0.2506
    1W        W48270   9.877  20.322   8.107 -0.1631 -0.0662 -0.2151
    1W        W48271  12.237  15.745   9.461 -0.1370  0.0902 -0.1926
    1W        W48272  23.114   6.322   2.391  0.0315  0.2561  0.0542
    1W        W48273   1.233   0.521   8.636 -0.0509 -0.1090 -0.0115
    1W        W48274  10.456  14.818   1.974 -0.3208  0.1770 -0.2206
    1W        W48275  14.573   0.538   0.176  0.0438  0.1295 -0.2664
    1W        W48276  29.355   6.709   0.900 -0.0018  0.3639  0.0860
    1W        W48277  15.236  14.507   6.545  0.2637 -0.0776 -0.1951
    1W        W48278  24.836  18.927   2.476  0.1504  0.0541  0.0877
    1W        W48279  21.668   6.353   0.145  0.4471 -0.0168 -0.1919
    1W        W48280   4.229  23.432   1.970  0.0237 -0.2010 -0.2580
    1W        W48281   8.769  14.066   8.781  0.0971  0.2922 -0.1185
    1W        W48282  25.399  17.866   8.881 -0.0074  0.1312  0.2435
    1W        W48283   5.203  19.971   8.162  0.0981  0.1040  0.1990
    1W        W48284  15.794  16.128   6.067  0.1055  0.4154  0.0143
    1W        W48285   9.329  20.123   6.885  0.2387 -0.2113  0.1290
    1W        W48286  26.985  10.776   1.966 -0.0776  0.1076  0.0233
    1W        W48287  11.950  29.623   8.091  0.0350  0.4455  0.0963
    1W        W48288  14.078  17.626   2.171 -0.2480  0.1930 -0.2630
    1W        W48289  18.951  27.404   2.549  0.0222  0.1332 -0.1202
    1W        W48290  17.315  28.398   8.254  0.4655  0.0548  0.0629
    1W        W48291  14.141  20.211   1.829  0.1133 -0.0272 -0.0994
    1W        W48292  19.115  22.376   1.238  0.0936 -0.0986 -0.0098
    1W        W48293  12.343   4.823   3.929  0.0975 -0.0125 -0.0110
    1W        W48294  17.042  12.135   0.370  0.0219  0.2389  0.3094
    1W        W48295   4.776  19.854   6.162 -0.1496  0.0509 -0.1307
    1W        W48296  23.426   2.834   8.681  0.0483  0.2211  0.1743
    1W        W48297  19.096  22.420   6.182 -0.0720  0.2463  0.1055
    1W        W48298   9.811   3.066   1.317  0.0956  0.1138  0.1793
    1W        W48299  14.640  26.642   1.461 -0.1999 -0.1792  0.0462
    1W        W48300  16.816   9.354   9.314  0.2623 -0.0547 -0.0106
    1W        W48301  11.810   9.082   0.758  0.2141 -0.2194  0.0648
    1W        W48302  22.420   0.171   8.950 -0.0168  0.1472 -0.0104
    1W        W48303  11.864   6.873   8.080  0.0990  0.1523  0.1411
    1W        W48304   3.731  21.680   0.275  0.1072  0.0613 -0.0934
    1W        W48305   8.110  18.535   2.168  0.2170  0.3250 -0.1588
    1W        W48306   6.891  26.174   2.225  0.1454 -0.3355  0.3631
    1W        W48307   5.407  14.135   0.269 -0.1608  0.1824  0.0192
    1W        W48308   5.923  25.816   6.094 -0.0619  0.1136  0.3337
    1W        W48309  18.654  14.960   1.329 -0.1821  0.1117 -0.0872
    1W        W48310  18.380  20.626   9.134 -0.1786 -0.0272 -0.0143
    1W        W48311  23.009  17.060   9.461 -0.2050 -0.0317 -0.0927
    1W        W48312   7.346  24.078   6.308  0.2938 -0.2806  0.0666
    1W        W48313   0.564  19.042   6.629 -0.2091  0.1185 -0.2417
    1W        W48314  17.691  15.855   6.880  0.3856 -0.1170  0.0773
    1W        W48315  10.845   9.627   2.321  0.0376 -0.0711  0.0196
    1W        W48316  18.161  17.855   1.917 -0.2456 -0.1309 -0.1592
    1W        W48317  26.486   6.020   9.392  0.1369  0.2015 -0.0957
    1W        W48318  28.102  24.517   7.853 -0.1122  0.1906 -0.0903
    1W        W48319  13.377   7.862   8.226 -0.2718 -0.2099 -0.0946
    1W        W48320   2.238  20.948   7.441  0.0340  0.0563  0.0431
    1W        W48321  21.528  15.515   6.483  0.0975 -0.2666  0.1892
    1W        W48322  22.857  17.202   7.063 -0.0236  0.1115  0.2557
    1W        W48323  17.324   3.394   8.506 -0.1892  0.1808 -0.1160
    1W        W48324  26.985  22.259   0.269  0.0232 -0.0737 -0.4802
    1W        W48325  14.633   2.984   2.408  0.1168  0.2698  0.1860
    1W        W48326  23.634  14.508   7.644 -0.5253  0.1519 -0.1144
    1W        W48327   1.555   1.596   1.605  0.0182  0.0515  0.0803
    1W        W48328  27.060   3.525   6.587 -0.0805  0.0850  0.2413
    1W        W48329  27.148  25.383   3.149 -0.0534  0.1457  0.1868
    1W        W48330  29.149  18.253   1.326  0.0357 -0.1720  0.1293
    1W        W48331  15.350   2.919   3.510  0.1634 -0.0820  0.1187
    1W        W48332  17.344   1.350   0.453 -0.0092 -0.1603 -0.2500
    1W        W48333  20.199  16.698   6.984  0.0820  0.4022 -0.3431
    1W        W48334  25.633  24.279   8.875  0.1310  0.2095 -0.0493
    1W        W48335  15.315  25.301   6.022 -0.2899  0.2068 -0.4809
    1W        W48336  26.268  12.538   1.000 -0.0509 -0.0054 -0.1989
    1W        W48337   7.156  14.633   6.569  0.0401 -0.1345 -0.0712
    1W        W48338   5.919  17.557   0.271  0.1984 -0.0431  0.1943
    1W        W48339  17.999  10.598   1.435 -0.0780  0.0708  0.2738
    1W        W48340   3.867   3.210   3.179 -0.1344 -0.2259 -0.2745
    1W        W48341  13.719   1.663   2.217 -0.1960  0.1497  0.0090
    1W        W48342  19.523   4.079   8.568 -0.1204  0.1530  0.0190
    1W        W48343   5.625   3.554   8.733 -0.1228 -0.2075  0.3130
    1W        W48344  25.462  26.389   7.524  0.1450 -0.1661 -0.0840
    1W        W48345  16.864  25.758   8.677 -0.2791  0.2189 -0.0926
    1W        W48346   3.672   3.961   8.739  0.1209 -0.1617  0.3437
    1W        W48347   9.161  20.757   9.038  0.0120  0.0865  0.1714
    1W        W48348   8.809   0.700   2.064 -0.0085  0.0413  0.1122
    1W        W48349  26.223  16.059   9.109 -0.2624  0.1722  0.2064
    1W        W48350  29.058  19.329   1.417  0.2139 -0.0533 -0.1038
    1W        W48351   4.305  24.864   8.816 -0.0620  0.2989  0.3279
    1W        W48352  16.603  22.303   7.506 -0.0536 -0.2570 -0.0075
    1W        W48353   2.973  11.708   7.102  0.0389 -0.0194  0.2986
    1W        W48354  23.410  19.292   8.244  0.1247 -0.0944 -0.0555
    1W        W48355  14.225  26.444   5.746 -0.0785 -0.1488  0.0316
    1W        W48356   8.363  10.232   8.954  0.0255  0.1942 -0.4183
    1W        W48357  17.015   7.275   0.780  0.2684 -0.1719 -0.2538
    1W        W48358   0.418  10.185   0.655 -0.0562 -0.0207 -0.0769
    1W        W48359  22.394  21.797   7.221  0.0171  0.2732  0.1548
    1W        W48360   6.518  18.088   0.857 -0.0355  0.1148  0.1044
    1W        W48361   5.932  26.605   0.597 -0.0747  0.1974 -0.0274
    1W        W48362  21.061  12.332   1.059  0.0166  0.0142  0.0403
    1W        W48363  17.443  27.640   6.224  0.0720  0.2099 -0.1621
    1W        W48364  12.151  14.798   6.973  0.0302 -0.2024 -0.2988
    1W        W48365  15.884  17.353   1.911  0.0033  0.1381  0.1324
    1W        W48366   0.905   7.683   1.361  0.2004 -0.1341 -0.3607
    1W        W48367  15.081  20.471   6.094  0.0401 -0.0707 -0.2386
    1W        W48368  17.144  22.137   9.212  0.1797  0.0915 -0.3502
    1W        W48369  18.531   4.965   1.795 -0.1512 -0.0446  0.1123
    1W        W48370  21.183   1.900   1.866  0.0351  0.0191 -0.0001
    1W        W48371  15.254  27.611   9.442  0.0580  0.0987 -0.1732
    1W        W48372  12.749  17.147   7.570 -0.2950  0.1220  0.2266
    1W        W48373  18.491  22.987   8.644  0.0859  0.1347  0.2181
    1W        W48374   8.287   8.158   2.951  0.1588  0.0206  0.1531
    1W        W48375  28.573  25.246   7.918  0.1144 -0.0601  0.0883
    1W        W48376  12.539  20.776   8.007  0.1397 -0.0947  0.0356
    1W        W48377  24.675  16.556   2.571 -0.0396 -0.0027 -0.1409
    1W        W48378  16.772  11.201   1.918 -0.2316  0.1254  0.0682
    1W        W48379  21.145  23.708   1.020 -0.0919  0.3043 -0.0665
    1W        W48380  19.776  22.968   6.606  0.1135  0.1736  0.1455
    1W        W48381   0.272   7.095   8.301 -0.3479 -0.1018 -0.0557
    1W        W48382   2.806  18.131   9.522  0.1537 -0.1703  0.1681
    1W        W48383  29.386  11.305   8.922 -0.0248  0.2789  0.0498
    1W        W48384  25.177  15.826   7.476 -0.1129 -0.0329 -0.2329
    1W        W48385   8.518  24.394   6.392  0.1727  0.0054  0.2181
    1W        W48386  25.437   9.176   1.846  0.0278  0.3110  0.1319
    1W        W48387  28.854   2.529   1.055  0.1187  0.0424  0.0415
    1W        W48388  28.789  24.697   9.002 -0.1516  0.1706 -0.0636
    1W        W48389   2.688  29.247   7.926  0.1012 -0.1530  0.1796
    1W        W48390  23.022  18.848   0.844  0.1039  0.3839 -0.0231
    1W        W48391   9.964  12.154   7.463 -0.1511 -0.0993 -0.0101
    1W        W48392  19.695  15.103   8.055  0.0438  0.1574 -0.2832
    1W        W48393  29.797   2.982   6.593  0.1975  0.0175  0.2337
    1W        W48394  18.923  22.961   8.336  0.1187 -0.2303 -0.3615
    1W        W48395   3.040  14.412   6.768 -0.0165 -0.1685  0.1943
    1W        W48396  22.169  28.668   0.131  0.1830  0.1458 -0.0470
    1W        W48397  21.867   9.905   9.461  0.1130 -0.0166 -0.1235
    1W        W48398  27.823   9.780   0.311  0.0338 -0.3816  0.0887
    1W        W48399  29.655   1.605   7.312  0.0685  0.0026 -0.0558
    1W        W48400  12.629  15.971   2.201 -0.1662  0.3062 -0.2065
    1W        W48401  17.312  22.861   9.485 -0.1492 -0.0506  0.2559
    1W        W48402   4.152   6.423   7.031 -0.0874  0.1471  0.0391
    1W        W48403   8.607   0.596   8.217 -0.0358  0.0113  0.0962
    1W        W48404   7.260  14.862   1.216  0.1514  0.0809  0.1118
    1W        W48405   7.702  26.045   6.122 -0.3696 -0.2311  0.0391
    1W        W48406  29.139  28.514   7.207 -0.2807 -0.0427 -0.0583
    1W        W48407   0.897   4.814   0.894  0.1720 -0.0929  0.0523
    1W        W48408  13.908  15.852   5.881 -0.0850 -0.1711  0.3657
    1W        W48409  18.268  27.030   7.495  0.0808 -0.1953  0.2201
    1W        W48410  21.308  15.027   8.389 -0.1496  0.0348 -0.2445
    1W        W48411   6.129  27.609   1.242  0.0037  0.3666 -0.1849
    1W        W48412  22.871   3.683   7.908 -0.1455  0.3609  0.0508
    1W        W48413  10.144   1.067   0.006 -0.0963 -0.1413 -0.3973
    1W        W48414  20.988  10.157   2.566 -0.1664 -0.3433 -0.0232
    1W        W48415   4.185  12.144   2.181  0.0410 -0.7116  0.1684
    1W        W48416   3.458   8.994   3.064  0.0687 -0.0559  0.2739
    1W        W48417  21.823  28.237   6.935 -0.0486 -0.0622 -0.2119
    1W        W48418   4.103  28.719   0.077 -0.1678 -0.1203  0.4139
    1W        W48419  25.897  16.024   1.276  0.1496 -0.0214  0.0794
    1W        W48420  28.193   8.694   7.949 -0.2363  0.2433 -0.1627
    1W        W48421  20.515   2.474   3.134 -0.0008 -0.2552 -0.1565
    1W        W48422  23.485   7.669   2.438 -0.0364  0.0705 -0.0776
    1W        W48423  22.447  29.269   8.046 -0.1146  0.0958 -0.1702
    1W        W48424  16.864  13.705   7.718  0.4714 -0.1360  0.2322
    1W        W48425  26.082   9.008   1.929  0.3040  0.0938 -0.0979
    1W        W48426  11.650   3.857   8.776 -0.0637 -0.1153 -0.3837
    1W        W48427  10.412  15.303   8.695 -0.2257  0.2158  0.1377
    1W        W48428  14.518   2.584   8.499  0.1348  0.0810  0.2515
    1W        W48429  25.435  19.220   0.121  0.1392  0.1567 -0.5599
    1W        W48430   4.461   8.913   8.650 -0.2697  0.2349  0.0036
    1W        W48431  18.187  28.479   1.564 -0.2188 -0.3240 -0.2049
    1W        W48432  10.562   5.910   1.263  0.2302  0.1978 -0.0448
    1W        W48433   5.325  11.226   1.269 -0.3143 -0.1645 -0.1316
    1W        W48434  27.296  19.508   1.406  0.3186 -0.0945 -0.0169
    1W        W48435  10.732   9.014   2.367 -0.1390  0.1712 -0.1017
    1W        W48436  20.404   0.298   8.006 -0.0221 -0.2350  0.0787
    1W        W48437   3.483   1.005   2.754 -0.0802 -0.2418  0.1564
    1W        W48438  27.557  27.432   9.366 -0.1818  0.1003 -0.0450
    1W        W48439   2.070  11.484   6.854 -0.0372  0.3516 -0.2191
    1W        W48440  27.613  19.708   7.484  0.2317  0.0894  0.1020
    1W        W48441  10.774  11.827   7.489 -0.0068 -0.1787  0.2422
    1W        W48442  25.486  24.993   8.150  0.1216 -0.1311  0.0555
    1W        W48443  21.025   0.714   9.114  0.0849 -0.0686  0.0202
    1W        W48444  18.038   1.048   0.992 -0.1302  0.1579 -0.0851
    1W        W48445  15.137  20.501   1.013  0.0592  0.0535  0.0643
    1W        W48446  15.111  15.413   5.937  0.2302  0.1010  0.1381
    1W        W48447   6.114  13.889   0.976 -0.1196  0.2266  0.1829
    1W        W48448  15.539  27.270   7.123  0.0796  0.1516  0.3425
    1W        W48449   6.414  10.006   1.802  0.0357  0.2197  0.2413
    1W        W48450  13.273  25.798   8.261  0.0984  0.1506 -0.0149
    1W        W48451  29.310  15.926   1.952 -0.1723  0.3749  0.0082
    1W        W48452  26.699  25.903   7.603  0.0483  0.2236  0.0561
    1W        W48453   7.465  21.893   5.990  0.3368 -0.5033  0.0741
    1W        W48454  20.138  17.616   1.327  0.0747  0.1879 -0.1374
    1W        W48455   5.523  20.190   7.841  0.1851 -0.4122  0.1324
    1W        W48456   0.190  16.913   9.115  0.3837 -0.0050 -0.0676
    1W        W48457   9.625   1.902   2.823  0.0588 -0.0894  0.0983
    1W        W48458   3.859  26.659   9.133 -0.2577 -0.2059  0.1562
    1W        W48459  10.568   4.011   7.642  0.2087 -0.0394  0.1306
    1W        W48460  11.837  28.773   2.230 -0.1458  0.1234 -0.0834
    1W        W48461   1.287  26.156   0.771  0.0670 -0.0651 -0.0634
    1W        W48462  15.705  10.753   1.648 -0.0658  0.3413 -0.1117
    1W        W48463  13.741  22.161   6.698  0.0620  0.0264  0.0275
    1W        W48464  29.092  14.567   1.620  0.0194 -0.1082  0.0252
    1W        W48465  19.188  23.840   8.659  0.2885  0.3095  0.0665
    1W        W48466   3.510  12.152   6.088 -0.0306  0.1591  0.1082
    1W        W48467   1.165   8.227   0.229 -0.0805 -0.1851  0.1562
    1W        W48468   3.082  21.333   3.232  0.0579  0.6400 -0.1845
    1W        W48469  13.775  24.343   0.116 -0.1151  0.2881 -0.3225
    1W        W48470  16.906  22.727   7.738 -0.2014 -0.2908  0.1483
    1W        W48471  11.018  29.535   8.380 -0.1214 -0.0969 -0.0151
    1W        W48472   1.758   1.744   2.953  0.1639 -0.3623 -0.1887
    1W        W48473  14.608  26.365   7.226  0.1516  0.0375  0.1800
    1W        W48474   9.036   0.930   1.664  0.0750  0.0650 -0.0162
    1W        W48475   5.270  19.847   1.097  0.0281 -0.0894 -0.0371
    1W        W48476  26.470   3.660   0.893 -0.2742  0.3481  0.1284
    1W        W48477  14.571  11.785   0.924  0.1954  0.0907 -0.0112
    1W        W48478  25.384   0.884   7.700 -0.1505 -0.2532  0.0615
    1W        W48479  16.906  20.247   6.529  0.0084  0.2661  0.1675
    1W        W48480  26.934  13.103   9.503  0.4335 -0.0749 -0.3028
    1W        W48481  11.207  26.341   0.566  0.0260 -0.4693  0.0009
    1W        W48482  19.893  18.561   6.323 -0.3958 -0.0089  0.1363
    1W        W48483  16.794   5.387   9.442  0.2975  0.2689 -0.0362
    1W        W48484  26.833  18.107   8.846  0.0002 -0.0050  0.0278
    1W        W48485   0.417   9.479   1.573 -0.1280 -0.3005  0.0456
    1W        W48486  28.274  26.256   1.058  0.2253 -0.0020 -0.2316
    1W        W48487  24.823  18.890   8.165  0.2129 -0.0829  0.2638
    1W        W48488   7.394  28.783   6.694  0.0088  0.0146  0.4586
    1W        W48489   9.679  23.204   1.826  0.3022 -0.0660 -0.2159
    1W        W48490  10.779  18.410   2.246  0.0265 -0.2281 -0.3949
    1W        W48491  11.191   1.620   8.851 -0.3691 -0.1110 -0.1928
    1W        W48492  16.448  24.854   6.747 -0.0007 -0.2704  0.4577
    1W        W48493   3.129  22.165   1.495  0.1241  0.2193 -0.1173
    1W        W48494   5.189  26.823   2.140 -0.2958 -0.2064  0.1337
    1W        W48495  20.934  20.764   0.616  0.1866 -0.2797 -0.0962
    1W        W48496  27.099  14.758   7.326  0.0966 -0.1271 -0.1211
    1W        W48497  12.795   1.974   7.295  0.3289  0.1042 -0.1623
    1W        W48498  10.366  15.272   8.172 -0.0048 -0.2082  0.1451
    1W        W48499  22.709   6.787   9.293 -0.0355  0.0824 -0.2134
    1W        W48500   2.307   7.847   2.393 -0.0379  0.2792 -0.2643
    1W        W48501   1.355  27.940   0.556 -0.1461  0.1115  0.2184
    1W        W48502   8.686  23.223   8.894 -0.1726  0.2077  0.1141
    1W        W48503  12.990   2.034   3.989 -0.0714  0.1706 -0.2409
    1W        W48504   3.678  24.385   7.563  0.0525  0.3051 -0.0002
    1W        W48505  28.011  25.040   7.825 -0.0333  0.0199 -0.1982
    1W        W48506  12.722  12.701   0.822  0.0538 -0.0106  0.0983
    1W        W48507  22.945   5.872   0.179 -0.2426  0.2772 -0.0225
    1W        W48508  27.030   5.798   0.123 -0.0826 -0.0152 -0.0013
    1W        W48509   7.836  15.820   0.344  0.1104  0.0992 -0.0260
    1W        W48510  14.664  29.754   1.787 -0.1381 -0.0193 -0.2180
    1W        W48511  15.364  22.161   6.015  0.0939  0.2154 -0.3214
    1W        W48512   2.727  11.871   9.022  0.1780 -0.3650  0.1797
    1W        W48513  21.315   9.749   1.012  0.3134 -0.1205  0.3947
    1W        W48514   3.926  19.347   0.936 -0.0689 -0.1333 -0.1081
    1W        W48515  17.214  22.915   8.605  0.0176  0.1137 -0.1318
    1W        W48516  28.063   1.353   6.267  0.3340 -0.0979 -0.2113
    1W        W48517  10.353  24.966   6.592 -0.0701 -0.1765  0.2987
    1W        W48518   0.147  28.664   6.293 -0.2291 -0.2328  0.3486
    1W        W48519  16.055   6.613   1.454  0.3929  0.1660  0.0475
    1W        W48520  12.873  18.008   1.522  0.0256  0.0308 -0.1313
    1W        W48521   4.611  11.374   7.699  0.1738  0.0872  0.2652
    1W        W48522  23.915   7.257   0.271 -0.0816 -0.0435 -0.0230
    1W        W48523   1.492  20.338   8.079  0.1637  0.1898  0.0342
    1W        W48524   8.397  25.703   1.732  0.2713 -0.0426 -0.0472
    1W        W48525  12.040  12.569   6.799 -0.1968  0.0925 -0.0826
    1W        W48526  16.767   8.284   0.525  0.0119  0.1598  0.0538
    1W        W48527  20.314  25.218   0.896  0.0597  0.1347 -0.2296
    1W        W48528  29.494  23.785   0.633  0.2434  0.0121  0.2656
    1W        W48529  26.214  26.760   6.202 -0.1588 -0.2242  0.1096
    1W        W48530  14.731  10.356   9.055  0.0899  0.0659  0.2339
    1W        W48531  25.288  25.873   1.022  0.1289  0.0543 -0.0991
    1W        W48532   0.601  22.900   1.217  0.0295 -0.0751  0.3930
    1W        W48533   2.374  12.493   2.078 -0.2666  0.0635 -0.0726
    1W        W48534  23.031   6.607   0.848 -0.1815 -0.0205  0.1267
    1W        W48535  26.406  12.624   0.061  0.2206  0.1392 -0.0240
    1W        W48536  21.952   4.260   9.409 -0.0231  0.0087 -0.0302
    1W        W48537   3.004  25.771   8.414 -0.0659 -0.0432  0.2027
    1W        W48538   8.887  13.179   8.771 -0.1390 -0.0513  0.1498
    1W        W48539  26.476  13.948   9.168  0.0584 -0.0429 -0.1842
    1W        W48540  19.836  15.811   1.794  0.2098  0.1604  0.1948
    1W        W48541  28.718   6.109   2.606 -0.2999 -0.1763  0.1104
    1W        W48542   5.453  25.353   5.553  0.1382  0.0143 -0.0202
    1W        W48543  16.885  24.242   7.284  0.0969 -0.1414 -0.0344
    1W        W48544   6.995  24.442   0.200 -0.0895  0.1080  0.1241
    1W        W48545  15.732  10.499   2.441  0.0786  0.0589  0.0381
    1W        W48546  23.157  13.175   0.909  0.3738 -0.2794 -0.2831
    1W        W48547  18.913   5.081   8.224 -0.1393  0.0001 -0.2094
    1W        W48548   1.263  22.606   6.569  0.0018  0.1037  0.0643
    1W        W48549  16.071   5.822   9.486 -0.1126  0.1085  0.0041
    1W        W48550  14.244  16.110   0.217  0.4028  0.2519  0.1774
    1W        W48551   6.021   9.484   1.250 -0.0048 -0.1006  0.0439
    1W        W48552  23.997  14.189   7.830  0.1222  0.1898  0.0418
    1W        W48553  11.525  17.348   1.375 -0.1259  0.0711  0.4759
    1W        W48554  24.243   4.951   0.140 -0.1593 -0.6327 -0.1375
    1W        W48555  14.288  19.955   0.805 -0.0214  0.1581 -0.1239
    1W        W48556  11.597  19.813   8.928 -0.0803  0.1672  0.0684
    1W        W48557  21.529  20.295   0.884  0.0088  0.1703  0.1864
    1W        W48558   1.698   5.562   6.583  0.3275  0.0983 -0.0361
    1W        W48559  27.016  23.122   1.881 -0.2641 -0.1264 -0.2832
    1W        W48560   9.892  25.926   5.786 -0.1337 -0.1246  0.0129
    1W        W48561  12.307   1.108   1.088  0.1227 -0.0062 -0.0504
    1W        W48562  24.866  12.993   6.883 -0.1629 -0.2389  0.2364
    1W        W48563  23.286  10.639   1.360 -0.2429  0.0183  0.0364
    1W        W48564  20.639  28.277   2.067 -0.0307 -0.0055 -0.2282
    1W        W48565  17.131  10.334   9.386  0.0367  0.2498 -0.0822
    1W        W48566   6.163   0.075   8.689 -0.0439  0.0871 -0.2017
    1W        W48567  13.523  15.888   7.084 -0.2991  0.0188  0.0493
    1W        W48568  13.534  27.389   8.251 -0.1022 -0.2792 -0.1706
    1W        W48569   7.026   8.344   1.519  0.0849 -0.2204 -0.1609
    1W        W48570   1.564   1.494   2.555 -0.1863  0.1416  0.1088
    1W        W48571  15.759  26.866   6.883  0.0467  0.0750  0.1946
    1W        W48572  18.673  15.956   7.975 -0.0538  0.3996  0.1693
    1W        W48573  29.250  24.976   8.631 -0.0823  0.0751 -0.0018
    1W        W48574  23.459   5.630   2.501  0.1275 -0.2673 -0.2084
    1W        W48575   8.500  22.597   8.835  0.0888 -0.5725  0.0472
    1W        W48576  20.074  10.737   7.630 -0.0584  0.0600  0.0053
    1W        W48577  24.247  27.033   7.321 -0.0267  0.0421  0.1596
    1W        W48578   5.892  17.621   6.765  0.3943 -0.0555  0.0858
    1W        W48579   5.105  12.477   8.811  0.1817 -0.0985 -0.2629
    1W        W48580  24.565   2.145   2.330 -0.1223  0.0023  0.2227
    1W        W48581   9.785  19.918   8.919  0.2818 -0.1382  0.0169
    1W        W48582  10.151  13.531   2.414  0.4165  0.0224 -0.1662
    1W        W48583  11.894   6.153   1.569  0.0297 -0.1579  0.0515
    1W        W48584   3.506  28.123   9.447 -0.4947  0.0494 -0.0461
    1W        W48585  28.542   6.067   8.290  0.1943 -0.1097 -0.0951
    1W        W48586  24.910  15.070   1.214 -0.2077  0.0768  0.1187
    1W        W48587   0.318  15.994   7.136 -0.0015  0.1337  0.2247
    1W        W48588  16.665  20.726   1.086  0.0407  0.0014 -0.0538
    1W        W48589  20.592   9.217   9.480 -0.0151  0.0296  0.1661
    1W        W48590  14.240  24.411   7.055  0.1352 -0.1003 -0.4480
    1W        W48591  13.384   0.419   1.658  0.0345 -0.2859  0.0025
    1W        W48592  24.461  25.866   6.849  0.0014 -0.2346 -0.1028
    1W        W48593   6.481   7.452   2.273 -0.0190 -0.3052  0.1320
    1W        W48594  25.642   4.645   0.470  0.3639  0.0511 -0.2189
    1W        W48595  28.019   4.166   1.200  0.1954 -0.2365 -0.2605
    1W        W48596   0.135  12.756   7.674 -0.0266  0.0859 -0.1474
    1W        W48597  10.516   1.059   8.617 -0.2884 -0.2972  0.2264
    1W        W48598  14.761   9.430   1.874 -0.3908 -0.0804  0.2721
    1W        W48599  23.723  26.209   6.266  0.1614  0.1411  0.0700
    1W        W48600  20.675  24.862   0.017  0.0401 -0.0559  0.0213
    1W        W48601   6.070  16.735   9.189 -0.0997 -0.0095  0.0985
    1W        W48602  11.792  23.012   6.203 -0.0574 -0.2894  0.2676
    1W        W48603  27.724   2.280   8.709  0.2717  0.1947  0.1582
    1W        W48604   8.195  12.215   7.915 -0.3186 -0.0317 -0.2645
    1W        W48605  17.484  23.696   6.897 -0.0541 -0.0814  0.1565
    1W        W48606   2.938   4.323   1.203 -0.3442  0.1606  0.0191
    1W        W48607  12.466  24.124   5.737  0.0379  0.1572  0.0958
    1W        W48608  11.948  21.797   5.981  0.2236 -0.2781 -0.0599
    1W        W48609   8.998  10.985   7.453 -0.1250  0.3944  0.1167
    1W        W48610  28.810   3.807   7.436 -0.0648  0.0748  0.2967
    1W        W48611  22.519   7.832   2.061 -0.0327  0.2050  0.3378
    1W        W48612   0.203  10.493   0.998 -0.1191  0.3707 -0.0328
    1W        W48613  19.964  22.092   0.601 -0.1130 -0.0366 -0.0226
    1W        W48614  25.937  15.410   1.170 -0.0396 -0.1028  0.1332
    1W        W48615  23.528  18.104   8.989 -0.0234 -0.1453 -0.2512
    1W        W48616  28.523   1.350   1.237  0.0754  0.0820 -0.0966
    1W        W48617  28.666  18.259   9.055 -0.0196  0.2386 -0.1276
    1W        W48618   9.091  28.800   0.975  0.2837  0.0881 -0.1785
    1W        W48619  23.974  21.884   2.950  0.0734  0.2570  0.0082
    1W        W48620   6.375  28.271   8.296 -0.2916  0.0625  0.1300
    1W        W48621  23.530  10.807   9.489 -0.1980  0.3012  0.1415
    1W        W48622  15.016   8.371   3.749 -0.0742 -0.1806 -0.0866
    1W        W48623  26.824   3.374   2.567  0.2143  0.0603 -0.1026
    1W        W48624  26.578  25.899   8.501 -0.1066  0.1185  0.4056
    1W        W48625  15.245  16.930   7.645 -0.3062 -0.1683  0.3420
    1W        W48626   1.025  20.035   8.147  0.4069  0.1143 -0.1341
    1W        W48627  28.137  22.155   2.444  0.1345 -0.0182 -0.2139
    1W        W48628   2.408   5.647   0.990  0.4013  0.2667 -0.2914
    1W        W48629  10.587  17.441   7.620  0.0839  0.0577 -0.0057
    1W        W48630   3.345  16.118   0.847 -0.0250 -0.1618 -0.2760
    1W        W48631  12.483  18.726   7.961  0.0312 -0.0390 -0.2810
    1W        W48632   5.041  21.772   1.999  0.3074 -0.0574 -0.2924
    1W        W48633  26.404  11.910   8.438 -0.0175 -0.1286 -0.1516
    1W        W48634  14.982  15.815   2.195  0.0998 -0.1175  0.1689
    1W        W48635  14.618   7.165   1.655  0.4737 -0.1968  0.1198
    1W        W48636  16.140  25.992   2.831  0.1449 -0.0306  0.1200
    1W        W48637   3.329  25.124   7.973  0.2251  0.3123  0.2330
    1W        W48638  25.123  11.536   6.971 -0.0680  0.2859  0.0262
    1W        W48639  13.571  28.130   2.433 -0.0771 -0.2531 -0.0407
    1W        W48640   8.843   8.544   6.761  0.3166 -0.3822  0.0074
    1W        W48641  23.007  20.019   8.506 -0.0596  0.1433  0.1447
    1W        W48642   7.076  11.292   2.819 -0.3405 -0.0580  0.0228
    1W        W48643  16.460  15.315   2.180  0.2239 -0.0171 -0.0323
    1W        W48644   6.460  27.426   6.832  0.2401 -0.0957 -0.0737
    1W        W48645   6.047  11.593   5.865 -0.1958  0.2971  0.0496
    1W        W48646  11.880  24.641   8.934 -0.1121 -0.0617  0.1326
    1W        W48647  12.052  12.286   7.633 -0.0851  0.0911 -0.1011
    1W        W48648   4.557   3.319   1.244 -0.2179  0.0069 -0.0771
    1W        W48649  11.203  25.938   0.819  0.0849 -0.1760 -0.3081
    1W        W48650  28.439  12.492   0.810 -0.0243  0.0360 -0.0858
    1W        W48651   3.675  13.423   9.426 -0.0534 -0.0388 -0.1243
    1W        W48652  24.722  14.154   1.998 -0.3493  0.1201  0.1474
    1W        W48653   4.328  12.401   6.437 -0.2246 -0.0747  0.0942
    1W        W48654  15.327   0.895   3.011 -0.0865 -0.1224  0.4255
    1W        W48655  12.642  18.222   6.523 -0.0620  0.0629  0.0517
    1W        W48656   8.655   8.344   0.067  0.1095 -0.0132  0.3789
    1W        W48657  26.670  26.903   6.012 -0.2248 -0.1293  0.0799
    1W        W48658  24.465  24.672   2.097 -0.3442 -0.1496  0.2548
    1W        W48659   1.646  26.902   7.350 -0.0428  0.2367  0.1198
    1W        W48660  18.961  12.503   8.458  0.1075 -0.0368 -0.0443
    1W        W48661  10.419  22.697   7.417 -0.2166 -0.1818  0.3536
    1W        W48662   9.151  22.990   0.868 -0.5207  0.2849  0.0184
    1W        W48663  19.845  18.536   7.203 -0.3619 -0.0819  0.2019
    1W        W48664   6.172  20.657   6.596  0.0631  0.1342 -0.0506
    1W        W48665  27.181   5.369   6.823 -0.0789 -0.0222  0.1686
    1W        W48666   5.619  18.898   6.775  0.1919 -0.2826  0.0027
    1W        W48667  22.075  12.672   8.476 -0.0879  0.0819  0.1402
    1W        W48668  10.914   3.857   3.463  0.0595 -0.0926 -0.2909
    1W        W48669  19.299  11.592   0.840  0.4042  0.0416 -0.0649
    1W        W48670  22.593  13.011   0.316 -0.1396  0.1616  0.0108
    1W        W48671   0.564   8.164   2.014  0.0265 -0.2377 -0.0137
    1W        W48672  21.990  20.377   0.615  0.2844  0.2427  0.0067
    1W        W48673  13.170  17.758   6.990  0.0335 -0.2903  0.2896
    1W        W48674   7.321  11.421   0.048 -0.1028 -0.1488  0.0180
    1W        W48675   7.827  10.329   9.158  0.0035 -0.2016 -0.1893
    1W        W48676  17.438   2.998   8.178 -0.1741 -0.2314 -0.2166
    1W        W48677  24.923  14.329   1.083 -0.3293  0.0870 -0.2297
    1W        W48678   6.337   2.276   0.932  0.0220  0.1862  0.1567
    1W        W48679   2.827   3.357   8.991 -0.1982 -0.0464  0.0078
    1W        W48680  23.198  25.301   0.342 -0.1509  0.0012  0.0120
    1W        W48681   0.235  13.860   0.213  0.0067 -0.1973  0.3479
    1W        W48682  10.072  18.896   9.198 -0.0066 -0.0413 -0.0606
    1W        W48683  16.514   2.958   1.508 -0.1279  0.2023  0.0441
    1W        W48684  21.848  20.753   6.310  0.1073  0.3261  0.3463
    1W        W48685  21.577  19.170   6.751 -0.0834 -0.1407 -0.1365
    1W        W48686  19.505   6.468   9.260  0.1426 -0.0732 -0.0651
    1W        W48687   7.923  17.623   8.615 -0.0579  0.4822  0.1304
    1W        W48688  25.653  22.411   3.017 -0.0904  0.0217  0.0476
    1W        W48689  29.616   9.891   9.116  0.2871 -0.0234 -0.2065
    1W        W48690   6.377   0.442   7.284  0.1535  0.0331  0.0228
    1W        W48691   8.147  14.734   7.244  0.3748  0.2763  0.0620
    1W        W48692  18.620   4.045   1.606 -0.0177 -0.1287 -0.1387
    1W        W48693  12.501  10.452   8.975 -0.1164 -0.0535 -0.1404
    1W        W48694   3.777  16.156   0.567  0.1251 -0.0284 -0.0527
    1W        W48695   7.044   0.608   2.312 -0.0269  0.0094 -0.1604
    1W        W48696  23.691   2.467   1.616 -0.1686 -0.4628 -0.1346
    1W        W48697  15.427  20.618   7.438 -0.0431 -0.0142 -0.0138
    1W        W48698  15.790  22.050   0.528  0.1351  0.2244  0.3987
    1W        W48699  28.375  26.426   2.875  0.0824  0.1606  0.0449
    1W        W48700  19.489  10.209   1.265  0.0830  0.0027  0.1684
    1W        W48701   0.895  12.974   0.262  0.1070 -0.3156 -0.0067
    1W        W48702  11.449   1.441   0.729  0.0174  0.0145  0.1356
    1W        W48703  28.617   6.213   1.908  0.2977 -0.2253 -0.0588
    1W        W48704   2.883  12.680   2.214  0.0273 -0.0368  0.0599
    1W        W48705   8.903  19.041   0.964 -0.2632  0.2959  0.1434
    1W        W48706  26.960  23.287   7.837  0.3949 -0.1865  0.0454
    1W        W48707  27.071  12.276   0.583 -0.2056  0.1111  0.0456
    1W        W48708  26.971   8.165   7.684  0.1975  0.0859  0.3555
    1W        W48709   9.548   5.534   6.979 -0.3132 -0.3304  0.2789
    1W        W48710  12.203  16.069   1.726 -0.2194  0.3134 -0.1310
    1W        W48711  11.826  22.068   7.695 -0.0582  0.0889 -0.3508
    1W        W48712  22.487  23.860   0.195  0.0248 -0.1761 -0.2369
    1W        W48713   8.977  11.252   2.266 -0.1323  0.0577  0.3683
    1W        W48714  11.164   8.039   6.602 -0.0122  0.0893 -0.0987
    1W        W48715  16.039  27.973   7.300  0.0202  0.0365  0.0918
    1W        W48716  15.896   1.248   3.333 -0.0251  0.0322 -0.2638
    1W        W48717  14.847  21.090   6.168 -0.2274  0.0128 -0.2236
    1W        W48718  16.246  19.210   8.232 -0.0682  0.0882  0.0112
    1W        W48719  20.976  21.897   1.361 -0.0199 -0.1849  0.0003
    1W        W48720  29.780  20.422   6.337 -0.1986  0.1100  0.0573
    1W        W48721   2.949   0.424   1.722  0.1036 -0.2202  0.0372
    1W        W48722   4.326  20.718   0.471  0.0791  0.0645 -0.2116
    1W        W48723  13.414   2.677   3.902  0.0354 -0.0063 -0.0493
    1W        W48724  10.737  29.802   1.402  0.0267 -0.0837 -0.1851
    1W        W48725  15.237  11.898   1.731 -0.3408 -0.0722 -0.0800
    1W        W48726  28.636   7.544   3.135 -0.2237  0.3397  0.4794
    1W        W48727  28.762  20.288   2.753 -0.2447 -0.1326 -0.0625
    1W        W48728   8.064  11.042   1.041  0.0942 -0.1979 -0.0113
    1W        W48729   1.539  11.547   1.801  0.1328  0.0638 -0.2419
    1W        W48730  22.661   8.995   1.067 -0.2759  0.1234  0.1046
    1W        W48731  27.867   2.699   8.397  0.1418 -0.3101 -0.0143
    1W        W48732  23.643  19.669   8.858  0.1346  0.1272 -0.1944
    1W        W48733   0.511  11.369   0.222  0.3855  0.1261 -0.0064
    1W        W48734  27.373  25.781   8.206 -0.0605 -0.1853 -0.0445
    1W        W48735  29.085  28.534   8.966 -0.1575  0.0115 -0.2866
    1W        W48736  26.655  18.020   1.226 -0.0784 -0.0376 -0.0657
    1W        W48737  21.501  29.658   7.878  0.2053  0.0075 -0.1151
    1W        W48738   2.271   5.756   0.056  0.1679 -0.0036  0.0222
    1W        W48739  13.378  23.502   7.499 -0.0828 -0.1409  0.0976
    1W        W48740  11.386   5.699   0.744  0.3952  0.1686  0.1280
    1W        W48741   9.731  16.085   6.691  0.0715 -0.2344 -0.0997
    1W        W48742  20.849   2.327   2.279 -0.0279  0.1721  0.1127
    1W        W48743  27.604   4.872   9.329  0.0606 -0.0668  0.0209
    1W        W48744  13.363   3.008   2.304  0.0800 -0.2547  0.2397
    1W        W48745   3.890  17.785   1.982 -0.0205  0.0232 -0.0185
    1W        W48746  27.149  11.635   2.220  0.2638  0.0018  0.2689
    1W        W48747  20.975  12.497   9.126  0.0250  0.2535  0.0190
    1W        W48748  13.118  21.715   0.651  0.0629  0.0182  0.0445
    1W        W48749  18.308  26.884   1.383  0.2910 -0.1016  0.2702
    1W        W48750  19.494   1.006   7.416 -0.1816  0.2141  0.2488
    1W        W48751  29.395  15.251   2.516 -0.0498  0.2386 -0.1644
    1W        W48752   1.313  29.430   2.175 -0.3300 -0.2699  0.1797
    1W        W48753   4.415  23.852   1.650  0.1088  0.1512  0.2865
    1W        W48754   3.062  27.950   0.940  0.1227  0.1615 -0.3323
    1W        W48755  28.109  19.341   2.290  0.2738 -0.2538  0.0632
    1W        W48756  10.434  29.017   7.483  0.0209  0.2102 -0.0752
    1W        W48757   7.824  13.478   9.270 -0.1028  0.0223 -0.1672
    1W        W48758  11.205  24.056   1.451  0.0011  0.0801  0.1692
    1W        W48759  13.149  11.724   8.535  0.0465  0.2032 -0.0237
    1W        W48760  21.261   3.376   3.065 -0.1505 -0.0430  0.0344
    1W        W48761  25.323   7.472   8.612  0.1168 -0.0735 -0.3175
    1W        W48762  13.415  23.297   7.035  0.1789  0.1089  0.3671
    1W        W48763   0.185  20.746   6.625 -0.2009 -0.3973 -0.1447
    1W        W48764  18.206  28.017   1.714  0.1229  0.0155  0.0727
    1W        W48765   4.299  28.263   8.432  0.0817 -0.1318 -0.2305
    1W        W48766  13.544  21.727   6.625 -0.3680  0.2926 -0.0726
    1W        W48767   0.687   0.692   0.487 -0.0399 -0.0781  0.0038
    1W        W48768  26.624  13.361   1.907  0.1634  0.0943 -0.1094
    1W        W48769  24.926   1.056   0.959 -0.1560 -0.1969 -0.0557
    1W        W48770  23.869  10.627   0.349  0.0565  0.2962 -0.2785
    1W        W48771   8.685  16.333   1.103 -0.1723  0.0442 -0.0432
    1W        W48772   1.584   4.655   7.599  0.1808  0.1802  0.0507
    1W        W48773  17.220   8.732   8.626 -0.1192 -0.1242  0.1561
    1W        W48774  26.006   6.068   0.130  0.1053  0.2386  0.0453
    1W        W48775   3.198  16.309   8.579  0.0179 -0.1717 -0.2172
    1W        W48776   2.025   6.590   8.154 -0.0039  0.0734  0.1139
    1W        W48777  14.454  16.912   6.707 -0.0409  0.0556  0.2017
    1W        W48778   9.685  26.411   0.610  0.1573 -0.2566 -0.0726
    1W        W48779  19.830   2.004   2.383 -0.0540 -0.1582  0.1767
    1W        W48780   9.448  23.932   0.661 -0.0787 -0.1033  0.0731
    1W        W48781   2.065   1.477   2.583  0.4676 -0.0486  0.1176
    1W        W48782  29.178  21.727   8.107 -0.1459 -0.1100  0.0422
    1W        W48783   1.910   4.795   1.872  0.1570  0.2343 -0.1222
    1W        W48784   5.197   8.419   7.537 -0.1181  0.1951  0.1062
    1W        W48785  15.635  11.695   0.072  0.1256  0.2163  0.2549
    1W        W48786   6.726  17.524   0.881  0.1927 -0.1364  0.1991
    1W        W48787   9.601   7.431   1.184  0.0594  0.1053 -0.0195
    1W        W48788  17.841  27.988   2.184 -0.0782 -0.0750 -0.1881
    1W        W48789   3.596   4.854   0.937 -0.0730 -0.2352  0.0708
    1W        W48790  14.333  24.312   0.013  0.2255  0.0061  0.0209
    1W        W48791  11.279   0.103   1.488  0.0123 -0.1081  0.1384
    1W        W48792   7.814  22.512   0.138 -0.0482  0.3615  0.0164
    1W        W48793  23.380  20.662   2.035  0.0078 -0.1221 -0.0786
    1W        W48794  15.438  16.110   7.370  0.0619 -0.3448 -0.0966
    1W        W48795   1.404  10.342   1.763  0.1514 -0.0450 -0.1840
    1W        W48796   6.933  12.770   1.484  0.1554  0.2129 -0.4809
    1W        W48797  12.704  17.630   5.802 -0.3340  0.1855 -0.0965
    1W        W48798  16.213  25.430   1.710 -0.2109  0.0238  0.0830
    1W        W48799   2.587  10.430   9.341 -0.3506  0.0173 -0.1679
    1W        W48800  11.519  24.902   1.351  0.1713 -0.0597  0.1891
    1W        W48801   2.739  29.687   9.010  0.3024 -0.4797  0.0918
    1W        W48802  29.814  22.363   2.915  0.0267 -0.0210  0.1073
    1W        W48803   3.684   5.448   2.380 -0.2033 -0.0578 -0.2269
    1W        W48804  28.091  27.965   7.991 -0.3786 -0.0514  0.3936
    1W        W48805  14.948  20.350   8.073  0.1013  0.1753 -0.0612
    1W        W48806  27.896   3.269   6.605 -0.0953  0.0857  0.0679
    1W        W48807   6.379  27.518   0.773 -0.0111 -0.1045  0.0358
    1W        W48808  27.379  24.767   2.069  0.1791  0.3036 -0.0362
    1W        W48809   6.109   2.397   9.132  0.2687 -0.4292 -0.1600
    1W        W48810  21.939  23.821   0.404  0.3391 -0.1533  0.2352
    1W        W48811   3.690   9.931   9.480 -0.1816 -0.2874  0.0784
    1W        W48812   4.473  25.394   6.829 -0.0920  0.1385  0.1384
    1W        W48813   8.624  21.958   8.795 -0.1567 -0.1165 -0.0028
    1W        W48814  15.280   5.082   3.545  0.1951 -0.1370 -0.1117
    1W        W48815   1.093  19.640   6.831  0.1778 -0.3330 -0.3797
    1W        W48816  23.771   5.856   2.882 -0.4205  0.2702  0.1116
    1W        W48817   7.135  14.844   9.122 -0.1909 -0.0361 -0.1787
    1W        W48818  10.466  14.511   9.399  0.0129 -0.1533 -0.1001
    1W        W48819  14.959   0.108   0.416  0.0620  0.0402  0.2057
    1W        W48820  10.964  28.489   1.337  0.1326 -0.0290 -0.0301
    1W        W48821  24.966  27.748   9.351  0.1007  0.1430 -0.2628
    1W        W48822  28.011  21.714   7.443 -0.2687  0.0406  0.2656
    1W        W48823   3.031  24.298   1.336 -0.0508 -0.0005  0.1039
    1W        W48824   2.612  27.527   7.408  0.0482 -0.1633 -0.0257
    1W        W48825  20.213   4.675   8.497  0.2202 -0.2103  0.2702
    1W        W48826   3.798  19.592   0.408 -0.0213 -0.0194  0.1007
    1W        W48827   8.970   0.756   2.571 -0.1161  0.1409  0.1895
    1W        W48828  10.682  10.916   9.470  0.1076 -0.0680  0.1955
    1W        W48829  16.147   4.641   3.746  0.1023  0.0128 -0.2048
    1W        W48830   0.078  15.067   7.129 -0.0979  0.0046 -0.0607
    1W        W48831  20.930  13.285   0.041 -0.1064  0.4318 -0.4596
    1W        W48832  24.075  17.309   8.928  0.3568 -0.0666 -0.3388
    1W        W48833   2.606   9.433   1.217 -0.0048 -0.1287 -0.0821
    1W        W48834  24.347  10.676   1.122 -0.1324 -0.3446  0.2555
    1W        W48835   0.114  10.228   7.528  0.2805  0.1321  0.1465
    1W        W48836  27.113  16.341   1.048 -0.0777  0.0539  0.1448
    1W        W48837  21.585  18.018   8.548  0.1468  0.1263  0.1566
    1W        W48838   6.062  12.338   1.948 -0.2144 -0.0037 -0.4444
    1W        W48839  24.071  18.306   0.154  0.1532  0.0461 -0.1201
    1W        W48840  20.498  19.407   7.890 -0.4074  0.0558 -0.2492
    1W        W48841   3.380  17.871   7.532 -0.1988  0.0692  0.0367
    1W        W48842  27.502   8.279   7.790  0.0451 -0.2169 -0.1282
    1W        W48843  17.587  28.696   2.938  0.0574 -0.2716 -0.0142
    1W        W48844   9.055  13.195   6.302  0.0874  0.2237 -0.2787
    1W        W48845  25.004  17.985   6.780 -0.3245 -0.0992  0.0572
    1W        W48846   7.847   0.720   9.087  0.3107  0.1843  0.0814
    1W        W48847   2.887  28.740   7.136 -0.0044  0.0428  0.0210
    1W        W48848  24.912   3.239   0.417 -0.1112  0.0780  0.3243
    1W        W48849  22.914   7.497   3.085 -0.1051 -0.1770 -0.3169
    1W        W48850   5.652   0.621   6.540 -0.1543  0.3344 -0.0394
    1W        W48851  18.768  13.252   7.266 -0.0368  0.0816  0.0435
    1W        W48852  27.980  22.953   2.988 -0.0328  0.5750 -0.1846
    1W        W48853  17.759  13.072   1.091 -0.0680 -0.0901  0.2896
    1W        W48854  15.768   9.418   1.070  0.0728  0.3657  0.0353
    1W        W48855  10.826  17.071   8.587  0.3937  0.0030  0.2527
    1W        W48856  26.228  29.011   8.831 -0.0054 -0.0362 -0.0202
    1W        W48857  16.564   6.610   1.316 -0.0982  0.4823  0.2002
    1W        W48858  23.550  17.553   7.673 -0.3632 -0.0906 -0.0704
    1W        W48859  10.913   4.367   8.407  0.0710  0.2082 -0.1249
    1W        W48860  13.020  22.289   8.243  0.3006 -0.1251 -0.2341
    1W        W48861  23.972  22.677   3.390 -0.1505 -0.0910  0.1469
    1W        W48862  28.493  29.400   8.936 -0.0560  0.1525 -0.4053
    1W        W48863   4.937   7.305   0.640 -0.0310 -0.0611  0.0669
    1W        W48864  23.646   9.281   6.904  0.0176 -0.1941 -0.2604
    1W        W48865  25.460   4.806   8.520 -0.0692  0.1353  0.0117
    1W        W48866  13.082  12.814   7.602 -0.2624  0.0192  0.0135
    1W        W48867  29.230  21.165   6.964  0.0587 -0.1300  0.3911
    1W        W48868   1.688  12.893   2.493  0.2391 -0.0173 -0.0261
    1W        W48869  15.431  24.589   6.860 -0.0150  0.3629 -0.0735
    1W        W48870  14.988   2.343   8.465  0.0444 -0.0913  0.3726
    1W        W48871  11.236  12.147   7.385  0.0786 -0.1130  0.0769
    1W        W48872  13.310  27.669   1.245  0.0390 -0.0366 -0.1826
    1W        W48873  18.277  19.414   5.834 -0.1531 -0.0442 -0.0391
    1W        W48874   1.993  18.465   7.929  0.0372 -0.2436 -0.2537
    1W        W48875  26.286  22.109   7.988 -0.0762 -0.0058 -0.0518
    1W        W48876   1.206   9.489   7.505 -0.0580 -0.0830  0.2553
    1W        W48877  23.153   4.139   2.973  0.1535 -0.0833  0.0437
    1W        W48878   8.549  26.335   6.774 -0.0944 -0.1044 -0.1098
    1W        W48879  17.260   5.146   2.478  0.2277 -0.0808 -0.1835
    1W        W48880  13.139  23.563   0.358 -0.0401 -0.0082 -0.0467
    1W        W48881  25.014  23.503   0.528 -0.0181  0.0637 -0.0366
    1W        W48882  25.274  22.855   2.885  0.1385  0.0274 -0.1810
    1W        W48883  17.872   3.942   9.078  0.0755 -0.1881 -0.3505
    1W        W48884  17.138   8.540   0.352 -0.2129 -0.0385 -0.0653
    1W        W48885  22.093  13.662   8.655 -0.0955  0.0263 -0.1328
    1W        W48886   5.019  12.076   7.791 -0.1061  0.1729  0.0301
    1W        W48887   2.759   6.713   0.860 -0.1879 -0.2170  0.0805
    1W        W48888  15.426  15.021   1.699 -0.1102 -0.0471  0.0148
    1W        W48889  17.849   9.217   1.986 -0.0816 -0.1684  0.0003
    1W        W48890  20.493  20.407   1.146  0.1597 -0.1379  0.3387
    1W        W48891   8.327  22.248   7.441  0.0811 -0.3718  0.2208
    1W        W48892   6.642  29.791   8.736  0.0149 -0.1102  0.2254
    1W        W48893  16.192  17.155   6.851  0.0393 -0.1651 -0.0235
    1W        W48894   9.183  27.858   1.092  0.1187  0.1855 -0.1309
    1W        W48895  14.596  19.087   7.428 -0.0247 -0.0668  0.2100
    1W        W48896  24.391  28.479   7.756 -0.1017 -0.1499 -0.1924
    1W        W48897  10.850  12.418   7.537 -0.2596  0.0926  0.2027
    1W        W48898  25.661  23.478   6.050  0.0357  0.1187 -0.4926
    1W        W48899  24.878  16.520   1.320 -0.0875  0.1111  0.0258
    1W        W48900   1.819  27.429   1.014 -0.2163  0.2475  0.3726
    1W        W48901  28.715  18.818   8.427  0.4015  0.1119  0.1012
    1W        W48902   5.811  24.804   0.842 -0.2280 -0.1487 -0.0113
    1W        W48903  18.349   1.014   0.124 -0.3224 -0.3287  0.3785
    1W        W48904  19.973  28.541   8.933 -0.0475 -0.1609 -0.1472
    1W        W48905   7.477  13.592   2.742  0.2669  0.2765  0.1432
    1W        W48906   9.790  11.546   0.871 -0.1215  0.2252 -0.1590
    1W        W48907   1.854  24.910   8.104 -0.0773 -0.2458 -0.2149
    1W        W48908  16.101  22.408   0.882  0.0407  0.1952 -0.0831
    1W        W48909   7.822  12.527   8.388  0.1229  0.0961 -0.1687
    1W        W48910  19.605  25.389   6.910 -0.1923 -0.1664 -0.2088
    1W        W48911  10.133  17.238   2.468 -0.2466  0.1920 -0.0528
    1W        W48912   5.595  10.599   7.546  0.2082 -0.1463 -0.0884
    1W        W48913  19.762   2.832   2.401  0.2277 -0.2762  0.1355
    1W        W48914  26.112  29.399   8.522  0.5593 -0.0379 -0.1999
    1W        W48915   4.707  28.100   6.179  0.3250  0.0239 -0.0596
    1W        W48916   8.372  19.132   6.860 -0.1310  0.2077  0.1136
    1W        W48917  27.920   6.462   2.923  0.0049 -0.0752  0.1654
    1W        W48918  12.467   5.607   0.965  0.0246  0.1274  0.2999
    1W        W48919   5.961  13.400   6.967 -0.1271 -0.0878 -0.0016
    1W        W48920  22.544   6.524   1.092  0.0470 -0.0991 -0.0544
    1W        W48921  10.403  19.404   1.684 -0.1595  0.2436  0.4290
    1W        W48922  19.121  17.425   7.249 -0.0283 -0.0873 -0.3419
    1W        W48923  17.269  11.173   8.224  0.0805  0.1092 -0.1429
    1W        W48924   6.147   1.984   1.288 -0.2412  0.2173  0.2980
    1W        W48925  28.981   9.896   8.499  0.0843  0.0000 -0.1434
    1W        W48926  13.099  27.090   8.104  0.3161  0.3111 -0.1101
    1W        W48927  16.831   0.629   1.902 -0.3038  0.1374 -0.0844
    1W        W48928   7.367  12.544   2.241  0.1600 -0.2845  0.0431
    1W        W48929   2.725   4.733   6.385  0.2682  0.1797 -0.1818
    1W        W48930  13.831  19.937   9.467  0.1535  0.2143 -0.2382
    1W        W48931   9.738   6.036   2.392  0.3885  0.0734  0.0805
    1W        W48932   0.009  13.816   1.400 -0.0378 -0.1922  0.3772
    1W        W48933   3.514  16.493   2.895 -0.0146 -0.1153 -0.0112
    1W        W48934  13.356  10.331   9.024 -0.0224 -0.0181 -0.0787
    1W        W48935  23.874   0.186   2.373 -0.4257  0.3086  0.1655
    1W        W48936  11.323  11.515   9.121 -0.1221  0.0733 -0.1701
    1W        W48937  27.364   8.218   2.199  0.0260 -0.0802  0.0741
    1W        W48938   1.384   2.055   8.517 -0.2422  0.1293  0.0646
    1W        W48939  10.523  15.143   0.356  0.1666 -0.1449 -0.1024
    1W        W48940  10.893  11.195   1.414  0.0904 -0.1649 -0.0998
    1W        W48941   5.992  15.839   3.156  0.0980  0.1286 -0.2103
    1W        W48942   8.088  23.185   2.162 -0.0770 -0.3134  0.3622
    1W        W48943  13.139  29.837   1.355  0.1306  0.2497 -0.0949
    1W        W48944   1.012  27.529   1.406  0.0553  0.0631  0.2541
    1W        W48945  15.184  28.069   1.179 -0.2389 -0.0945  0.1498
    1W        W48946  21.787  25.039   1.434 -0.2384  0.1841 -0.0074
    1W        W48947  19.005   5.807   0.403 -0.1698 -0.0372  0.2056
    1W        W48948  13.460  29.198   9.008 -0.1992  0.0792 -0.1042
    1W        W48949  12.379  19.847   6.312  0.0390  0.1942 -0.4419
    1W        W48950  13.865  28.785   2.644 -0.2494  0.1058 -0.1392
    1W        W48951  11.128  12.803   5.799 -0.0352  0.6114  0.0258
    1W        W48952  11.332  19.760   5.553 -0.2810 -0.0556  0.0723
    1W        W48953  24.846  23.858   8.153  0.1947 -0.2393  0.0045
    1W        W48954  25.894   6.936   2.639  0.2404  0.2488 -0.1139
    1W        W48955  27.396  24.281   0.444 -0.1378 -0.2253 -0.1072
    1W        W48956  22.676   9.013   2.597 -0.0416 -0.0118  0.3774
    1W        W48957   3.648   5.000   9.426  0.0322 -0.0423 -0.1659
    1W        W48958  12.256  19.570   6.750 -0.0910  0.0015  0.2679
    1W        W48959   6.251   7.208   0.691  0.0221 -0.1459 -0.2376
    1W        W48960   6.356  18.419   0.157  0.0020  0.3612  0.3541
    1W        W48961  11.430   9.359   1.649  0.0851  0.0531  0.1394
    1W        W48962  14.372   1.308   1.437 -0.2096  0.3933 -0.1460
    1W        W48963   3.990   7.416   7.167 -0.3769 -0.0714  0.0716
    1W        W48964  28.893  26.923   7.324 -0.0450  0.0883  0.1233
    1W        W48965  28.952  13.143   0.807  0.0121  0.1473 -0.1459
    1W        W48966   5.986  25.881   9.005  0.1600 -0.0791  0.1709
    1W        W48967  26.506  16.374   2.217  0.0505  0.0691  0.1453
    1W        W48968  28.816  22.961   0.606  0.2869  0.2566  0.2708
    1W        W48969   3.496   2.528   8.498  0.0495  0.1909 -0.1790
    1W        W48970  16.050  20.885   6.728 -0.0382 -0.0231 -0.0995
    1W        W48971  17.748  29.833   8.671  0.2466 -0.2203  0.2042
    1W        W48972  18.870  25.246   9.218  0.1655  0.4344 -0.2941
    1W        W48973  26.749  14.591   2.296  0.3061 -0.0907 -0.3263
    1W        W48974  12.720   1.096   0.800 -0.0453 -0.1545  0.0118
    1W        W48975   6.345   8.845   7.560 -0.1789  0.0090  0.0259
    1W        W48976  29.741  15.572   9.398  0.1262 -0.0566  0.4382
    1W        W48977  13.537  23.956   8.380 -0.3436  0.1117  0.2117
    1W        W48978  18.485   2.539   2.669  0.3097 -0.0929 -0.0346
    1W        W48979   6.358  24.278   5.992  0.0775 -0.1525  0.0540
    1W        W48980  25.478  23.191   9.119  0.0049 -0.0583  0.0439
    1W        W48981  18.046   3.698   2.221  0.2366  0.0543 -0.1435
    1W        W48982  19.661  18.800   7.618  0.2588 -0.1586  0.1410
    1W        W48983  24.800  25.646   9.231 -0.1349 -0.1864  0.4222
    1W        W48984  13.949   7.709   1.661 -0.1478 -0.2881 -0.2158
    1W        W48985   6.630   9.654   1.494  0.0369  0.1013 -0.0655
    1W        W48986  27.522  12.890   2.020  0.1950  0.2386  0.3111
    1W        W48987  10.089   1.702   2.795  0.1616  0.3310 -0.2862
    1W        W48988  22.196   1.394   8.855 -0.1318  0.1659  0.1027
    1W        W48989   8.481  14.389   1.616  0.0304  0.0661 -0.1989
    1W        W48990  28.025  19.902   6.826 -0.6145 -0.2620 -0.1138
    1W        W48991  17.821   4.779   3.270 -0.2222 -0.3618 -0.0596
    1W        W48992   0.916  16.647   7.216  0.0375 -0.1009 -0.2093
    1W        W48993  18.825   0.993   2.451 -0.0759  0.2350 -0.0807
    1W        W48994  29.733   8.651   8.127 -0.1369  0.2789 -0.0103
    1W        W48995  25.303   1.051   0.279 -0.0567  0.0598  0.1602
    1W        W48996   4.266  26.638   6.278 -0.0750 -0.4130 -0.0050
    1W        W48997   1.161   1.119   5.938 -0.0468  0.0011 -0.1012
    1W        W48998   5.512  27.894   0.413  0.2720 -0.0069 -0.0464
    1W        W48999   4.878   0.553   8.312  0.2142 -0.1026 -0.1184
    1W        W49000  16.843   8.203   2.788  0.0797  0.1105  0.0761
    1W        W49001  16.614  15.893   6.985 -0.4267  0.2399  0.1481
    1W        W49002  16.094   2.227   2.164  0.0862  0.0052 -0.2674
    1W        W49003  10.564  12.346   1.348 -0.2857  0.4374  0.0439
    1W        W49004  28.920  12.601   0.699 -0.2358 -0.1697 -0.0486
    1W        W49005   6.248  25.184   9.244  0.0657 -0.1197  0.0120
    1W        W49006  18.665  11.184   8.151  0.3338  0.4134 -0.2253
    1W        W49007   6.083  23.247   0.629 -0.0709 -0.2159  0.0228
    1W        W49008   9.764  18.723   6.709 -0.1992  0.0367 -0.0648
    1W        W49009  11.671  17.858   1.369 -0.2513  0.5477  0.0835
    1W        W49010  13.822  11.477   2.053 -0.0287  0.1373  0.0360
    1W        W49011  10.116  12.554   5.967 -0.1782 -0.0923 -0.0507
    1W        W49012  25.332  20.492   7.840  0.0219  0.1060 -0.2111
    1W        W49013  17.835   6.849   8.625 -0.3736  0.1356  0.1777
    1W        W49014  10.111  26.456   8.706  0.2436  0.0753 -0.0320
    1W        W49015   7.476   6.844   2.254 -0.2135 -0.2512 -0.1067
    1W        W49016  12.300   3.861   8.364  0.1149 -0.3394  0.2259
    1W        W49017   4.848  14.135   8.863  0.0715 -0.1537  0.3288
    1W        W49018  29.001   7.673   7.679  0.1915  0.1374  0.1917
    1W        W49019   0.256   4.769   7.755  0.1325 -0.0843 -0.2832
    1W        W49020   2.579   2.036   6.981 -0.0209  0.1257 -0.0626
    1W        W49021  26.263  12.805   8.164  0.1834  0.1625 -0.0701
    1W        W49022   1.906   8.135   0.998  0.3065  0.4079  0.0291
    1W        W49023  17.320  17.115   2.291  0.4850  0.1684  0.0088
    1W        W49024  29.838   7.709   7.905 -0.1685  0.0069 -0.0169
    1W        W49025   5.442   3.988   8.579  0.2070 -0.0038 -0.1737
    1W        W49026  23.648   9.183   8.078 -0.1683  0.3487  0.0935
    1W        W49027  14.306  12.278   1.186 -0.3988  0.1938  0.0614
    1W        W49028  17.828  19.596   2.191  0.1374 -0.0514 -0.0494
    1W        W49029   7.751  29.612   8.539  0.0037 -0.0098 -0.2385
    1W        W49030  23.457   7.549   1.930  0.2524  0.1213 -0.0269
    1W        W49031  21.911   9.559   7.781 -0.2306 -0.0622 -0.4914
    1W        W49032  10.164  27.397   9.248  0.3451  0.1416  0.0373
    1W        W49033   2.128   6.962   2.392  0.0185 -0.3978  0.0116
    1W        W49034   4.845  14.021   2.911  0.0758 -0.0599  0.3589
    1W        W49035   2.977  13.903   0.911  0.1401  0.3487  0.3972
    1W        W49036  27.775  15.330   7.342  0.2360  0.2469 -0.0914
    1W        W49037  18.439  10.776   2.211 -0.2789  0.0696  0.0633
    1W        W49038  11.102   1.125   7.971  0.0691  0.0906 -0.0424
    1W        W49039  21.400  14.251   9.023  0.1710  0.1431  0.2343
    1W        W49040  25.667  14.981   7.656  0.2676 -0.2318 -0.1633
    1W        W49041  25.713   2.389   0.847  0.1134  0.4790 -0.1529
    1W        W49042  22.016   5.620   0.065 -0.1400  0.2654 -0.0408
    1W        W49043   8.403  25.059   1.362 -0.1078 -0.0118  0.1592
    1W        W49044  23.737   6.441   8.336  0.1325 -0.0205  0.3531
    1W        W49045   8.643  11.056   9.303  0.2250 -0.1255 -0.1638
    1W        W49046  16.908   6.379   8.209  0.4522 -0.0192  0.0867
    1W        W49047  26.522  18.774   0.599 -0.3160 -0.2435 -0.1656
    1W        W49048  10.078   2.030   3.168 -0.1828 -0.0259 -0.0524
    1W        W49049   6.835   2.871   1.115  0.1823 -0.1870  0.0652
    1W        W49050  22.029   2.328   3.292 -0.0247  0.0510 -0.0906
    1W        W49051  19.964  12.937   1.137  0.0410 -0.4045  0.1817
    1W        W49052  26.162  10.645   1.103  0.2002 -0.1377 -0.0727
    1W        W49053   7.695  19.359   2.163  0.0642 -0.0458 -0.1358
    1W        W49054  14.077  14.302   0.434 -0.0668 -0.3228 -0.0513
    1W        W49055  26.594  13.031   8.519  0.4069  0.0239  0.1096
    1W        W49056   0.182  17.316   9.389 -0.2853 -0.0099 -0.2607
    1W        W49057  16.426  22.258   6.991  0.0563 -0.1724 -0.2575
    1W        W49058  13.097  17.069   6.841  0.1415  0.2689  0.0644
    1W        W49059  23.387  20.551   0.657  0.0252  0.0385  0.1557
    1W        W49060  14.025  14.259   1.032 -0.0137  0.1050 -0.1076
    1W        W49061  17.887   2.613   8.929 -0.0409  0.2912 -0.1808
    1W        W49062  17.679  23.426   7.867  0.1562 -0.1682 -0.0427
    1W        W49063  27.240   7.097   7.637  0.3062  0.0917 -0.1800
    1W        W49064  11.841   6.289   2.708  0.0466  0.0277  0.0778
    1W        W49065   4.560  20.255   9.359  0.0993  0.2016  0.3451
    1W        W49066  27.382   3.295   0.948  0.1295 -0.1227 -0.0587
    1W        W49067   5.259  20.583   0.139 -0.0026 -0.1135  0.0218
    1W        W49068  26.874  26.870   9.128  0.2583  0.0767  0.1249
    1W        W49069   4.276  18.638   9.126 -0.1772 -0.3876 -0.2119
    1W        W49070   2.831  14.107   7.117  0.0561 -0.0864  0.0407
    1W        W49071   0.564  27.193   5.985 -0.3052 -0.1216  0.1228
    1W        W49072   8.722  10.897   2.404  0.0348  0.0568 -0.1288
    1W        W49073  10.170   6.042   0.177 -0.1497 -0.2442 -0.0576
    1W        W49074  27.252  28.585   9.431  0.0765  0.0433 -0.0693
    1W        W49075   7.244   0.378   7.111 -0.1487  0.1378  0.4311
    1W        W49076   5.699  15.857   7.223 -0.3461 -0.3007 -0.0623
    1W        W49077  13.348  26.904   6.194  0.2941  0.2619 -0.0927
    1W        W49078  23.280  11.063   7.111 -0.0497  0.0448 -0.0500
    1W        W49079   2.691  19.770   7.997  0.0957 -0.1587  0.0952
    1W        W49080  21.530   9.470   7.496  0.2132  0.3498  0.1966
    1W        W49081  24.642  20.823   7.613 -0.0633  0.0349 -0.1161
    1W        W49082  14.001  22.196   1.029 -0.0771 -0.3224 -0.1857
    1W        W49083  12.326  24.876   8.877 -0.0821  0.0866 -0.3083
    1W        W49084   4.246  13.900   7.299 -0.1387 -0.0169  0.2944
    1W        W49085  13.795  10.461   2.239 -0.1067  0.3367  0.1351
    1W        W49086  15.379   3.385   3.578 -0.1722 -0.0458  0.0809
    1W        W49087  17.823   7.902   3.353 -0.1447 -0.0188  0.2211
    1W        W49088  22.020  28.859   8.175  0.0707  0.1983  0.0504
    1W        W49089  20.667   4.359   1.366 -0.1875  0.0062  0.1463
    1W        W49090  15.127  24.759   7.222  0.0549 -0.0778 -0.1017
    1W        W49091   0.203  24.890   1.251 -0.0278  0.1434  0.0179
    1W        W49092  11.902  14.741   1.068 -0.0170  0.1581  0.3640
    1W        W49093  11.310   7.799   0.340  0.3668 -0.1288 -0.0527
    1W        W49094  13.778  23.148   7.358 -0.0443 -0.0230  0.0760
    1W        W49095   3.678  23.820   5.418  0.1342 -0.0637  0.1694
    1W        W49096  22.583   3.431   8.774  0.1303  0.0771 -0.0294
    1W        W49097   4.088   3.052   1.505  0.2290  0.1849  0.1801
    1W        W49098   2.407  18.821   8.282  0.1839  0.0549 -0.1782
    1W        W49099   9.642  28.813   1.777  0.3257 -0.0312 -0.0072
    1W        W49100  25.131   8.456   2.297  0.0672  0.1395  0.1235
    1W        W49101   1.891  10.385   8.937  0.1769 -0.1131  0.1049
    1W        W49102   6.961  12.283   8.321 -0.1273  0.0434  0.0907
    1W        W49103   3.570  11.669   2.847  0.1505  0.1290  0.2282
    1W        W49104  26.684   3.890   1.805 -0.1145 -0.0506  0.1670
    1W        W49105  24.838   3.952   8.021 -0.0702 -0.3938  0.2421
    1W        W49106  17.997   1.033   8.456  0.1411  0.0018  0.0725
    1W        W49107   4.210   5.855   8.373  0.2019 -0.2588 -0.4360
    1W        W49108   7.108   7.191   0.371  0.1195  0.0510  0.0860
    1W        W49109   3.706  17.827   6.070  0.0579 -0.0590 -0.1968
    1W        W49110  18.024  24.260   6.221 -0.1695  0.1651 -0.3358
    1W        W49111  19.571  22.415   7.601 -0.0435  0.1508 -0.2831
    1W        W49112  28.726  16.852   7.060 -0.1958  0.2785  0.2429
    1W        W49113   1.223  29.028   7.788  0.1406 -0.1279  0.2549
    1W        W49114  17.657   3.763   0.059  0.1976  0.1560  0.1595
    1W        W49115   0.586   5.859   2.273  0.3590 -0.2640  0.0374
    1W        W49116   6.310   2.049   8.655  0.1408  0.3847 -0.0698
    1W        W49117  26.938   2.152   2.577 -0.0410 -0.0530 -0.2962
    1W        W49118   8.849  11.197   6.272 -0.1917 -0.1727 -0.0891
    1W        W49119   4.447   7.443   0.056 -0.0676  0.3092  0.0425
    1W        W49120  23.206  25.776   3.379 -0.0226  0.0193  0.0489
    1W        W49121   9.785  24.519   8.925  0.0290 -0.0715  0.0839
    1W        W49122   6.941   5.714   1.471 -0.2195  0.1743  0.1429
    1W        W49123  18.275  23.556   1.867 -0.4059 -0.0488  0.2170
    1W        W49124  21.682  22.374   8.672 -0.0366 -0.3337 -0.1443
    1W        W49125  18.129  10.767   8.048  0.1601  0.1159  0.1906
    1W        W49126  13.090  29.682   9.135  0.1642 -0.0990 -0.0188
    1W        W49127  18.179  12.669   7.504  0.1129 -0.0188 -0.1906
    1W        W49128   8.932   0.451   1.091  0.0413  0.1142  0.0283
    1W        W49129   3.392  29.803   8.296  0.0503 -0.1746  0.1422
    1W        W49130   4.209  21.206   2.082  0.2295 -0.0097  0.1449
    1W        W49131  21.196  13.140   2.050  0.0183 -0.0577 -0.3078
    1W        W49132  24.138  24.935   9.314 -0.0656  0.1187 -0.0011
    1W        W49133  27.778  24.294   7.092  0.0269 -0.1933  0.2013
    1W        W49134  29.035  11.852   1.605  0.0282  0.0515 -0.1368
    1W        W49135  14.823  19.743   0.838  0.2456 -0.2748  0.0621
    1W        W49136  16.040  15.807   1.102 -0.2213 -0.0983 -0.2028
    1W        W49137   1.500  11.980   2.119  0.3251  0.1932 -0.0122
    1W        W49138   4.022  20.204   6.676 -0.2805  0.1651  0.2313
    1W        W49139  14.980   2.972   9.159  0.0582 -0.1187  0.4051
    1W        W49140   4.193  21.683   2.254  0.0024 -0.0816 -0.3059
    1W        W49141  15.324   7.298   1.679 -0.3454  0.0899 -0.1353
    1W        W49142  14.769  14.845   2.549  0.3202 -0.1758 -0.0910
    1W        W49143   5.080   5.818   7.648  0.2236  0.1080 -0.0329
    1W        W49144   2.016   0.867   6.835  0.3622 -0.3681  0.2430
    1W        W49145  26.013  20.769   7.517  0.5274  0.0924 -0.0883
    1W        W49146   5.851   6.749   3.303  0.2606  0.2023 -0.0110
    1W        W49147  16.426  18.810   7.450 -0.2192  0.0695  0.1101
    1W        W49148   1.840   1.790   2.013  0.0373  0.3880  0.1691
    1W        W49149  22.187  12.276   7.228 -0.1313 -0.1336  0.0671
    1W        W49150  14.689  21.576   5.876  0.1385 -0.1174 -0.2030
    1W        W49151   1.775  17.865   7.521  0.2680 -0.1760  0.0915
    1W        W49152  15.541  10.910   0.293 -0.1056  0.3286  0.0119
    1W        W49153  17.683  15.116   8.092 -0.1318  0.0612  0.3175
    1W        W49154  21.865   4.622   9.078 -0.3802 -0.1207  0.0522
    1W        W49155   8.923  17.133   1.210 -0.1486 -0.1099 -0.1134
    1W        W49156  13.231   7.979   8.738 -0.0196  0.2815 -0.2643
    1W        W49157  19.970  16.702   8.443  0.1437 -0.0625  0.0109
    1W        W49158  29.098  10.990   8.599  0.4462 -0.0522 -0.2042
    1W        W49159  16.326  11.537   1.899  0.0138 -0.1202  0.0438
    1W        W49160   7.398  25.638   6.286  0.1146  0.0038 -0.1223
    1W        W49161  20.018  21.588   7.328  0.2001 -0.2152  0.0931
    1W        W49162  10.857  18.613   6.319 -0.0740  0.0678  0.3315
    1W        W49163   3.088   6.589   2.348  0.2647  0.1730 -0.2241
    1W        W49164  26.228   9.712   7.364 -0.0406  0.2958 -0.1402
    1W        W49165  29.297   3.654   7.677  0.3815 -0.0414 -0.0359
    1W        W49166  23.711  21.413   1.087 -0.0351 -0.1549 -0.0434
    1W        W49167   6.569  11.912   8.635  0.1415  0.0966 -0.0382
    1W        W49168   0.740  21.573   0.609 -0.0126 -0.0143 -0.1031
    1W        W49169  26.612  26.769   7.533 -0.2325  0.1806 -0.2121
    1W        W49170  13.648  28.937   9.493 -0.2507 -0.2645  0.0419
    1W        W49171   7.949  25.693   6.335 -0.0866  0.3172  0.1628
    1W        W49172   2.361  18.296   8.258 -0.0339  0.1967  0.1198
    1W        W49173   4.807   7.638   1.057  0.2201  0.0477 -0.0371
    1W        W49174  16.669   3.419   2.407 -0.0426 -0.1102  0.1489
    1W        W49175  19.516  17.816   0.027 -0.0875  0.0189 -0.0333
    1W        W49176  29.536   4.229   9.234  0.1756 -0.4333 -0.0021
    1W        W49177  25.454  23.096   8.579 -0.1933 -0.0836 -0.1255
    1W        W49178  23.068   4.760   8.421 -0.0840 -0.1144 -0.2791
    1W        W49179   5.286  24.302   1.826  0.2169  0.1163  0.0135
    1W        W49180  26.873   8.634   7.423  0.0161  0.1357  0.1577
    1W        W49181  14.759   2.087   0.898 -0.2101 -0.1612 -0.0101
    1W        W49182   0.264  22.205   2.537 -0.3312  0.0756  0.0675
    1W        W49183   8.814   8.038   7.597  0.1977  0.0967  0.2804
    1W        W49184  27.237  25.829   1.196  0.2117 -0.1442 -0.1366
    1W        W49185  17.944   6.402   0.690 -0.0041 -0.0548 -0.0143
    1W        W49186  15.719   5.508   0.197  0.2751  0.1376 -0.2062
    1W        W49187  26.810   1.768   1.275 -0.0651 -0.2556 -0.3236
    1W        W49188  23.670  27.012   0.772  0.0107 -0.2389 -0.0196
    1W        W49189   4.981  13.767   6.219  0.0933  0.0269  0.2646
    1W        W49190  10.764   4.276   7.199 -0.0899 -0.0436  0.0857
    1W        W49191  20.969  24.030   6.003  0.1831  0.1578  0.4761
    1W        W49192  16.194  28.171   1.697 -0.0481 -0.0940 -0.1396
    1W        W49193   2.278   0.663   8.886 -0.2217 -0.0499  0.1238
    1W        W49194  23.737  24.090   2.147 -0.1257  0.0948 -0.1500
    1W        W49195  21.136  21.731   0.519 -0.0651  0.0842  0.0300
    1W        W49196  23.182   9.168   7.884 -0.1494  0.0823 -0.0917
    1W        W49197   8.157  12.578   2.037 -0.0649 -0.1205  0.0760
    1W        W49198  29.293  11.432   2.360 -0.3564 -0.3161 -0.1225
    1W        W49199  25.061  18.691   2.096 -0.1474  0.2735  0.1634
    1W        W49200  14.238  14.120   9.013  0.1699 -0.0740 -0.0464
    1W        W49201  15.215   1.409   8.702 -0.2191 -0.0352 -0.0168
    1W        W49202  11.083  10.161   2.130 -0.2252 -0.2413  0.0209
    1W        W49203   1.110   1.345   7.008  0.3971 -0.3017  0.0116
    1W        W49204  18.169  29.038   8.935 -0.4397 -0.2721 -0.0019
    1W        W49205   5.223  17.101   8.157  0.0933  0.2589 -0.0458
    1W        W49206   6.890  21.160   8.354 -0.1328  0.1109 -0.2585
    1W        W49207  22.683  23.558   1.551  0.1729  0.1462 -0.0617
    1W        W49208  29.316   0.335   1.943  0.0605 -0.0477 -0.1912
    1W        W49209  21.007  28.856   7.325  0.1367 -0.0637 -0.3303
    1W        W49210   5.925   1.175   9.468 -0.3866 -0.0253  0.0779
    1W        W49211   4.583  28.699   7.315 -0.1127  0.0127 -0.2833
    1W        W49212  19.463  28.043   7.296  0.0502  0.0032  0.2572
    1W        W49213   1.591  17.964   9.418 -0.2125  0.2689 -0.2281
    1W        W49214  26.584  21.128   7.913 -0.3491  0.0075 -0.2082
    1W        W49215  16.880  15.541   2.377  0.2400  0.1732  0.0557
    1W        W49216  27.943   4.607   2.594 -0.1737 -0.1303 -0.2359
    1W        W49217   9.415  27.072   0.517  0.0875 -0.4178  0.1179
    1W        W49218  18.025  10.320   0.964  0.1451  0.1476 -0.0138
    1W        W49219   8.667   7.888   0.258 -0.0973 -0.2696 -0.2734
    1W        W49220  16.477  28.528   0.350 -0.0703  0.0309  0.0234
    1W        W49221  28.545  12.981   0.618 -0.0057  0.1353 -0.0402
    1W        W49222  27.269  20.179   7.390  0.0148  0.1785 -0.5083
    1W        W49223  12.206  18.239   1.074 -0.1456 -0.0177  0.1439
    1W        W49224  18.263  26.142   0.113 -0.0431 -0.5050  0.0931
    1W        W49225  22.059   8.014   1.924  0.1193 -0.1999  0.1565
    1W        W49226   9.969  10.588   0.451 -0.0464 -0.0420  0.0375
    1W        W49227  10.678   1.554   8.819 -0.4097 -0.2785  0.0606
    1W        W49228  16.672   9.261   7.080  0.1981 -0.1634  0.1942
    1W        W49229  12.374  21.475   7.018  0.4595  0.0511  0.1341
    1W        W49230  20.037   9.696   2.500  0.1459  0.1330 -0.2738
    1W        W49231  17.866  10.818   0.848  0.3129  0.1324  0.5251
    1W        W49232   7.568  11.707   7.719  0.0675 -0.3006  0.2398
    1W        W49233   0.468  14.394   0.893  0.0202 -0.3845  0.0954
    1W        W49234   8.322  16.122   9.248 -0.0862 -0.1528 -0.1508
    1W        W49235  22.389  18.015   9.401  0.1227  0.2247  0.1473
    1W        W49236  22.198  22.888   0.950 -0.1501  0.1580 -0.0998
    1W        W49237   2.279  25.336   0.752 -0.1543  0.0296 -0.0869
    1W        W49238  28.136  24.756   1.624  0.2555 -0.0817 -0.0814
    1W        W49239  17.269  11.917   7.715  0.0383 -0.0263  0.2215
    1W        W49240   3.075  23.410   7.622 -0.1640 -0.1178 -0.3602
    1W        W49241  17.702  20.220   1.075  0.2574 -0.2253 -0.1162
    1W        W49242  20.738   4.343   3.078  0.0195 -0.2199 -0.0232
    1W        W49243  24.058  10.453   7.445 -0.1741 -0.2740 -0.0161
    1W        W49244  15.711  27.377   6.649 -0.2479  0.3183 -0.2691
    1W        W49245  22.563  14.672   0.111  0.0604 -0.0144  0.1925
    1W        W49246   7.744  28.357   7.851 -0.0497  0.2000  0.0199
    1W        W49247  18.402  28.475   1.146 -0.0875 -0.3219 -0.0885
    1W        W49248  25.489   2.891   9.176  0.3249  0.1831 -0.0317
    1W        W49249  23.387  17.352   8.125  0.1057 -0.0546  0.1332
    1W        W49250   3.350   3.780   0.076 -0.0984  0.0693 -0.1896
    1W        W49251   2.060  21.203   0.698 -0.0907  0.3827 -0.2232
    1W        W49252  28.496   7.979   8.118  0.1242  0.2522 -0.0535
    1W        W49253   5.894  27.856   7.524 -0.0007  0.1710  0.1863
    1W        W49254  22.194   3.386   2.753  0.0102  0.1564  0.1090
    1W        W49255  15.158  28.118   8.340  0.2867  0.3811 -0.0412
    1W        W49256   7.517   7.689   2.261  0.1609 -0.1249  0.1695
    1W        W49257   8.701   5.139   7.346 -0.0669 -0.0588  0.0316
    1W        W49258   1.065  28.345   8.052 -0.1226 -0.0182  0.0217
    1W        W49259  11.118  17.297   5.754  0.0361  0.0795  0.1374
    1W        W49260  21.905   0.448   0.884  0.2783 -0.0583  0.1294
    1W        W49261  28.893   9.675   9.386 -0.1456  0.2752  0.0742
    1W        W49262   1.431   9.088   9.082 -0.1099 -0.1814 -0.0408
    1W        W49263   5.494   2.941   7.396  0.3290 -0.0901 -0.2482
    1W        W49264  22.255  17.040   9.025  0.1829 -0.0855  0.3294
    1W        W49265   3.794   4.340   7.277 -0.0542 -0.1160 -0.1164
    1W        W49266  16.762   5.201   2.488  0.3087  0.0743 -0.3362
    1W        W49267   5.647  23.162   7.223 -0.0964  0.1055  0.1764
    1W        W49268  27.329  25.093   8.822  0.1193 -0.2541  0.0639
    1W        W49269   2.524   0.810   7.893 -0.2957 -0.1660 -0.2581
    1W        W49270  26.245  21.844   2.775 -0.3011  0.0413 -0.0891
    1W        W49271  29.691  23.127   8.002  0.1821 -0.0299 -0.0212
    1W        W49272  26.423  13.200   0.323  0.0646 -0.4243  0.2079
    1W        W49273   4.932   8.938   1.303  0.1360 -0.0010 -0.1597
    1W        W49274  25.177   9.034   8.837 -0.0119  0.0025  0.1365
    1W        W49275   3.741  17.507   8.331 -0.0683 -0.1659 -0.0451
    1W        W49276  19.725  22.635   8.095 -0.1202 -0.4345 -0.1040
    1W        W49277  11.923  19.585   1.892 -0.0844 -0.0368  0.1773
    1W        W49278  17.546  15.877   0.022  0.0613  0.0383  0.1799
    1W        W49279   7.658  28.918   1.281 -0.0802 -0.1101 -0.1506
    1W        W49280  22.343   7.643   1.109  0.1239 -0.1683 -0.1434
    1W        W49281   8.710  11.847   7.904  0.1959 -0.1071  0.0705
    1W        W49282  22.318   5.397   2.673 -0.2955  0.1009  0.3211
    1W        W49283  28.650  20.525   6.225 -0.0022  0.2070 -0.1511
    1W        W49284   5.458  17.463   1.455  0.0443 -0.1983  0.0937
    1W        W49285   2.208  26.613   0.951 -0.3516  0.0525  0.1035
    1W        W49286  16.990  10.218   2.366 -0.2003  0.1263 -0.0617
    1W        W49287   3.905  15.802   8.845 -0.1699 -0.0259 -0.3572
    1W        W49288   5.127   8.401   1.695  0.0729  0.0763  0.0485
    1W        W49289  19.613  24.134   5.937 -0.0920  0.0679  0.0171
    1W        W49290  23.886  22.819   0.211  0.3826 -0.0139  0.0313
    1W        W49291   9.133   6.538   3.153  0.3361  0.1470 -0.0928
    1W        W49292   3.607  11.532   1.023 -0.1380  0.0949  0.0320
    1W        W49293  17.806   5.100   1.056 -0.2579  0.2548  0.0952
    1W        W49294  23.928  15.293   7.313 -0.0225 -0.1455 -0.1264
    1W        W49295  22.304  22.782   0.376 -0.2601 -0.0291 -0.0174
    1W        W49296  10.577  18.775   7.525 -0.1218  0.2421  0.1079
    1W        W49297  16.598  26.282   0.152  0.0842  0.2584 -0.1665
    1W        W49298   4.934  24.187   9.039  0.1165  0.1425 -0.2076
    1W        W49299   2.275  11.707   9.355  0.3757 -0.1868  0.3031
    1W        W49300  17.634  20.265   7.770  0.2297 -0.1622 -0.0148
    1W        W49301  13.910  29.168   0.786 -0.0190  0.2038 -0.0165
    1W        W49302  23.824   1.331   3.111  0.1736 -0.0103 -0.0754
    1W        W49303  14.833   7.007   2.480 -0.0671  0.0827 -0.1367
    1W        W49304   1.271   0.684   0.133  0.1224 -0.0679 -0.0429
    1W        W49305  27.403  29.287   8.826 -0.2995  0.0038  0.3988
    1W        W49306   6.812   3.388   7.799 -0.0740 -0.1243  0.3860
    1W        W49307   9.848   8.177   8.300 -0.1085  0.3280 -0.2137
    1W        W49308   8.993  19.925   1.024  0.1977  0.0895 -0.0451
    1W        W49309  24.783   2.771   2.264  0.1077  0.0023  0.2081
    1W        W49310   3.528  13.076   6.572  0.1416 -0.0597 -0.1512
    1W        W49311  17.979   6.578   2.391 -0.1422  0.1492  0.1574
    1W        W49312  25.523  16.537   8.558 -0.0658  0.0234 -0.1827
    1W        W49313  24.149  13.341   7.614  0.0144  0.1464  0.0802
    1W        W49314  19.695  26.799   5.940 -0.2025 -0.0721 -0.1050
    1W        W49315  23.310   1.112   1.389  0.0945 -0.2748  0.2515
    1W        W49316  11.187   8.627   9.516 -0.0077  0.2440  0.1974
    1W        W49317   4.819  24.049   5.589 -0.0530  0.0384  0.1152
    1W        W49318  24.162  21.621   1.262  0.0486  0.1949 -0.2793
    1W        W49319   6.034   7.236   2.236  0.1498 -0.1601  0.2249
    1W        W49320   3.097   3.879   7.720  0.2711  0.1247 -0.0099
    1W        W49321  12.998  12.579   7.152  0.0455 -0.3193 -0.2495
    1W        W49322  12.673   7.409   2.393 -0.2259  0.3187  0.1424
    1W        W49323  18.816  19.160   9.308  0.3607  0.1254 -0.0617
    1W        W49324  14.806   2.250   0.053 -0.1492 -0.1516  0.1569
    1W        W49325   0.786  18.347   0.720 -0.3198 -0.2972  0.2106
    1W        W49326  28.877  17.262   9.132 -0.1753 -0.0257  0.1362
    1W        W49327  27.482  26.328   1.037 -0.0693  0.3485  0.1663
    1W        W49328   9.558   8.206   9.104  0.1371  0.1540 -0.2276
    1W        W49329  14.187  19.439   6.099  0.1805  0.1969  0.0747
    1W        W49330   6.352  13.247   0.643  0.0709 -0.0752 -0.1995
    1W        W49331  11.222   5.109   6.959  0.4336  0.2269 -0.1278
    1W        W49332  17.093   6.431   2.953 -0.0512 -0.1195 -0.1509
    1W        W49333  15.965  29.791   0.312 -0.0772  0.0356 -0.0387
    1W        W49334  26.120  19.787   5.798  0.1408  0.0478  0.1768
    1W        W49335   4.142  15.415   7.010 -0.1482 -0.1084 -0.2757
    1W        W49336  26.083  28.160   8.274 -0.1785  0.0847  0.1577
    1W        W49337   7.327   7.590   7.915 -0.2064 -0.1354  0.2070
    1W        W49338   7.974   0.512   1.122 -0.1561  0.0940 -0.1185
    1W        W49339  26.418  27.367   2.365 -0.1364  0.0816 -0.1212
    1W        W49340  29.796  25.268   1.468 -0.0321 -0.1351 -0.0517
    1W        W49341   4.928  14.652   8.795  0.0212  0.1298  0.0993
    1W        W49342   7.264  12.042   2.244  0.3322  0.1279 -0.0358
    1W        W49343  27.280   7.010   8.121 -0.0903 -0.0843  0.1319
    1W        W49344  21.594  19.725   8.177  0.2928  0.2758  0.4146
    1W        W49345  24.717  16.529   6.638  0.0895 -0.3539  0.2538
    1W        W49346  27.648  13.472   0.875 -0.1269  0.0934 -0.3182
    1W        W49347  18.593  23.969   6.134  0.1261 -0.1629 -0.1334
    1W        W49348  10.102  25.517   8.955 -0.1104  0.1332 -0.1610
    1W        W49349  17.129   2.991   3.505  0.0627 -0.2506  0.2887
    1W        W49350   8.945  22.347   8.869 -0.0616  0.0651  0.1435
    1W        W49351  20.734  19.539   6.987 -0.0670  0.0596  0.0989
    1W        W49352  28.857   4.728   0.245 -0.0038 -0.0460 -0.4078
    1W        W49353  19.086   7.894   2.447 -0.1058  0.0069  0.0096
    1W        W49354  23.966  21.170   0.067 -0.0136 -0.3438 -0.1219
    1W        W49355  15.952  25.846   1.456 -0.2672 -0.0185  0.1971
    1W        W49356   6.428  27.715   6.382 -0.2712  0.0279 -0.1870
    1W        W49357   5.120  17.519   1.806  0.2886  0.1410  0.1008
    1W        W49358  11.823   0.099   1.606  0.2673 -0.2158  0.4600
    1W        W49359   6.404  20.083   7.875 -0.2325 -0.4457  0.0483
    1W        W49360  17.345   5.663   1.514 -0.1016  0.3237 -0.1491
    1W        W49361  25.982   6.221   2.669  0.2543  0.1755 -0.1845
    1W        W49362  21.570  26.972   2.225  0.1898 -0.0601  0.1143
    1W        W49363   4.381  29.333   1.077 -0.0216  0.1165  0.2134
    1W        W49364   5.661  20.725   8.849  0.2308 -0.0909  0.0303
    1W        W49365  17.416  10.086   2.055 -0.1234 -0.0725  0.1548
    1W        W49366  18.981  29.346   0.399  0.0388 -0.1450 -0.2457
    1W        W49367  18.522  17.317   9.471  0.1349 -0.3910 -0.0374
    1W        W49368  14.461   6.424   3.571 -0.0932 -0.0777  0.2355
    1W        W49369  26.636   2.855   1.205 -0.1501  0.2746  0.1067
    1W        W49370   9.468   6.747   1.969 -0.1249 -0.1004  0.1008
    1W        W49371  29.351  21.791   1.954 -0.0182 -0.1565 -0.0562
    1W        W49372  12.249  14.378   1.193  0.0012 -0.1116  0.0389
    1W        W49373   4.151  12.283   1.300  0.1163 -0.2176  0.1441
    1W        W49374   2.103  15.902   8.785  0.3154  0.0859  0.3174
    1W        W49375  28.350   8.774   7.358  0.1479  0.0896 -0.0282
    1W        W49376   5.805  26.563   8.278 -0.1265  0.0776 -0.2263
    1W        W49377  11.977  21.947   6.505 -0.1701 -0.2113  0.1401
    1W        W49378  20.194   8.035   8.167 -0.0884  0.0867 -0.0142
    1W        W49379  22.379  28.457   0.598 -0.1547  0.0691 -0.2274
    1W        W49380  10.697  10.313   1.724  0.2289  0.0723  0.1585
    1W        W49381   4.467  20.178   0.309  0.2295 -0.0388 -0.0856
    1W        W49382  12.710  22.940   6.573 -0.2184  0.1253 -0.1110
    1W        W49383  14.467  15.048   0.161  0.0910 -0.1227  0.1777
    1W        W49384  23.166  24.126   6.703  0.2064  0.0538  0.0407
    1W        W49385  18.529   4.744   2.247  0.1117 -0.0195  0.1452
    1W        W49386  11.810  13.518   1.960  0.2585 -0.1048  0.1070
    1W        W49387   9.292   6.063   7.109  0.1015  0.2262 -0.2094
    1W        W49388  18.074   7.097   7.948  0.2872  0.0696  0.2489
    1W        W49389  18.501  17.609   1.045 -0.0888 -0.0333  0.2124
    1W        W49390  21.452   1.387   2.067 -0.0851  0.3214  0.0215
    1W        W49391  14.679   8.536   2.837  0.3290 -0.1065  0.1870
    1W        W49392  20.500  14.932   7.366 -0.0718 -0.0892 -0.0027
    1W        W49393   2.330   8.219   7.294  0.0618 -0.1274  0.3971
    1W        W49394  14.823  27.582   2.026  0.1057  0.1694 -0.0787
    1W        W49395  24.049   4.675   8.454 -0.2463 -0.2251 -0.3332
    1W        W49396   0.348  23.675   1.288  0.0938  0.0338 -0.2720
    1W        W49397  13.662  22.441   7.647 -0.0914 -0.2663  0.3831
    1W        W49398   1.408   7.877   8.210 -0.0286 -0.2361  0.0646
    1W        W49399   1.522   3.641   7.449 -0.0641 -0.0242  0.1769
    1W        W49400  29.724  19.080   7.385 -0.2431 -0.1142  0.0645
    1W        W49401  10.088  27.089   7.732 -0.0002 -0.2149 -0.0702
    1W        W49402   5.821  13.525   9.286 -0.0308  0.0457 -0.2713
    1W        W49403  18.618   7.984   0.558 -0.1339 -0.1556  0.1736
    1W        W49404   8.605   6.588   8.522 -0.0280 -0.1736 -0.2336
    1W        W49405  11.492  19.918   6.475  0.1923 -0.3934 -0.0691
    1W        W49406  18.023   4.984   3.735 -0.2288  0.0165  0.0840
    1W        W49407  25.975  26.271   1.491 -0.2750 -0.0618 -0.0935
    1W        W49408   8.838  27.952   8.288 -0.1924  0.1418  0.2707
    1W        W49409  10.177  16.650   7.428 -0.1263  0.1525  0.0441
    1W        W49410  29.769   1.556   8.197 -0.2980 -0.1236  0.2552
    1W        W49411  28.973  20.388   6.597 -0.2188 -0.3597  0.0700
    1W        W49412  22.240  11.759   8.599  0.0505  0.0138 -0.1032
    1W        W49413  21.466   7.120   8.108  0.2342  0.0211 -0.1750
    1W        W49414  13.721  14.168   7.350  0.1959 -0.1440 -0.0094
    1W        W49415  15.149  21.365   5.714 -0.0070 -0.0447 -0.1204
    1W        W49416  16.562   2.472   4.673  0.1741  0.1039  0.0189
    1W        W49417  18.132   7.523   2.160  0.0427  0.0632 -0.0242
    1W        W49418  26.116   8.628   8.408  0.1742  0.3253  0.0258
    1W        W49419  29.647  17.704   9.382  0.2526 -0.1636  0.1686
    1W        W49420  26.809   8.250   1.170  0.1918  0.2363  0.2815
    1W        W49421  15.161  19.029   7.586  0.0593 -0.0557 -0.0907
    1W        W49422  13.458  28.308   8.651 -0.0315 -0.0213  0.1888
    1W        W49423  24.356  28.155   0.407 -0.0086 -0.3773  0.1331
    1W        W49424  25.960   8.804   8.868 -0.0230  0.1591 -0.0341
    1W        W49425  28.098  29.348   2.345  0.0526  0.0327  0.2351
    1W        W49426  13.093  23.184   1.942  0.0507 -0.0366  0.0405
    1W        W49427   4.562   0.538   9.133  0.1705  0.0123 -0.0319
    1W        W49428  13.708   1.783   3.576  0.1842 -0.2431 -0.3930
    1W        W49429  20.202  27.478   0.605 -0.1094  0.1984  0.2195
    1W        W49430   6.255  27.570   5.630 -0.4685 -0.1146  0.1181
    1W        W49431  17.743   1.286   3.852  0.1131 -0.3036  0.3760
    1W        W49432  16.181   7.567   9.076 -0.0786 -0.1044  0.0898
    1W        W49433  13.154  20.434   0.940 -0.3842 -0.0262  0.0844
    1W        W49434  15.142  10.721   8.263 -0.0098  0.3550 -0.1427
    1W        W49435  17.042   3.199   2.997  0.1086 -0.2768 -0.0483
    1W        W49436  19.685  13.823   7.158 -0.0939 -0.2295 -0.1417
    1W        W49437   9.664  12.889   2.893 -0.0802  0.0900  0.2776
    1W        W49438   9.446  21.143   8.676 -0.0072 -0.0217  0.2990
    1W        W49439  12.150  16.109   8.212  0.1289  0.2626 -0.1466
    1W        W49440  27.529  18.687   2.353  0.0560 -0.0005 -0.0883
    1W        W49441  28.869   3.525   6.407 -0.2348 -0.2799  0.2115
    1W        W49442  17.867  25.177   0.947 -0.0597 -0.1216  0.1841
    1W        W49443  16.636  12.983   1.614  0.0855 -0.0100 -0.0190
    1W        W49444  25.253  17.657   0.198 -0.0730  0.1457  0.0650
    1W        W49445  20.242  22.884   5.766  0.2426 -0.1827 -0.0621
    1W        W49446   7.873  28.629   8.941  0.0537 -0.1483  0.0168
    1W        W49447  28.139  26.185   7.178 -0.0619  0.0122 -0.1363
    1W        W49448  20.762   0.491   8.708 -0.1165  0.0401 -0.0060
    1W        W49449   6.425   9.277   2.444  0.1853 -0.2090 -0.1053
    1W        W49450   1.414  22.379   1.912  0.1209  0.0224 -0.0559
    1W        W49451   9.610  25.285   1.717 -0.1709  0.2501 -0.1255
    1W        W49452  18.116  25.242   1.750  0.2823 -0.0712 -0.1751
    1W        W49453  25.119  22.670   0.451 -0.0845 -0.1601  0.1219
    1W        W49454   6.391  22.526   1.928  0.1821  0.2443  0.0212
    1W        W49455   6.923  24.187   2.636 -0.0803 -0.1331 -0.2146
    1W        W49456  22.985  10.212   2.056 -0.1706 -0.1716  0.2042
    1W        W49457   2.797  25.502   0.723  0.0248 -0.0878 -0.0798
    1W        W49458  12.823  29.838   3.408 -0.1786 -0.0290  0.0537
    1W        W49459  25.667   9.766   2.158 -0.0849  0.0213 -0.0983
    1W        W49460  10.068  25.394   2.059  0.2238 -0.2606 -0.3449
    1W        W49461  25.760  18.562   8.340 -0.1031 -0.1304 -0.0715
    1W        W49462  20.807   1.391   3.862 -0.1289 -0.2735 -0.3584
    1W        W49463  25.325  10.972   0.949  0.1821  0.1341  0.3026
    1W        W49464   9.073  12.291   3.042  0.0437  0.0457 -0.0247
    1W        W49465  28.134  18.683   1.169 -0.1444  0.2989 -0.0298
    1W        W49466   3.718   2.001   0.750  0.0719  0.1862  0.2170
    1W        W49467  29.747   5.829   8.731 -0.0905 -0.0252  0.0933
    1W        W49468  22.718  16.881   9.060  0.0194 -0.2328 -0.1294
    1W        W49469  11.095  22.120   5.926 -0.2865  0.0979 -0.1666
    1W        W49470  10.448   7.992   7.555 -0.4590  0.1071  0.3118
    1W        W49471  18.625   0.631   9.409 -0.4536  0.1574  0.1885
    1W        W49472  14.818   7.549   8.889 -0.0565  0.1827 -0.1242
    1W        W49473  27.263  25.716   1.718 -0.1264 -0.0746  0.0593
    1W        W49474  25.933   1.278   8.100  0.1412  0.2257 -0.0543
    1W        W49475  29.643   7.549   2.209 -0.1446 -0.3171  0.0859
    1W        W49476  27.981   2.275   8.022 -0.1665 -0.0386  0.0711
    1W        W49477   7.754  29.462   0.972 -0.1898 -0.1308  0.3290
    1W        W49478  26.294  15.752   8.704 -0.0234 -0.1437 -0.4463
    1W        W49479  15.783  25.952   6.875 -0.0529  0.0473  0.0371
    1W        W49480  26.865  23.398   6.579  0.3393  0.1608  0.1388
    1W        W49481  24.025  21.613   7.527  0.1659 -0.1171  0.4885
    1W        W49482   0.383  22.463   6.405 -0.0463  0.0226 -0.0395
    1W        W49483  16.441  21.477   5.809 -0.2172 -0.2724  0.1324
    1W        W49484  29.370  17.482   8.014 -0.0543  0.0793 -0.1375
    1W        W49485  12.933  19.784   0.968 -0.0939 -0.2569  0.2435
    1W        W49486  10.884  23.615   1.818 -0.0510  0.0667  0.0019
    1W        W49487  12.143  28.177   8.227 -0.0995 -0.0468 -0.1557
    1W        W49488  19.471  14.403   2.091 -0.1475 -0.0453  0.5249
    1W        W49489  22.384  27.227   2.092  0.4524  0.0381  0.4609
    1W        W49490   6.648  20.813   0.188 -0.1913  0.0343  0.0866
    1W        W49491  13.658   4.125   0.894  0.1141  0.0311  0.3972
    1W        W49492   8.559  18.871   8.511  0.1688 -0.0132 -0.3540
    1W        W49493  19.731  23.986   6.378  0.3329 -0.1791 -0.2008
    1W        W49494  10.290  17.872   7.355 -0.0961 -0.2572 -0.2233
    1W        W49495  17.220  15.825   2.079 -0.3288  0.1205 -0.0833
    1W        W49496  14.380   4.356   8.491  0.2424 -0.0265 -0.1480
    1W        W49497   6.595  11.789   6.115  0.1052  0.1164 -0.6566
    1W        W49498   8.831  23.648   9.470 -0.0986 -0.2792  0.0883
    1W        W49499  24.912  15.007   1.697  0.3486 -0.1051  0.1719
    1W        W49500  17.676  23.582   5.981  0.2498 -0.0402 -0.0137
    1W        W49501   1.594  10.677   2.080  0.5947  0.0368 -0.2047
    1W        W49502  25.416  23.981   3.205 -0.1254 -0.1895  0.0340
    1W        W49503  11.084   4.198   0.541  0.1847  0.0841 -0.1732
    1W        W49504  15.676  22.191   5.622 -0.1388  0.1905  0.2201
    1W        W49505   8.497   2.946   1.981  0.0909  0.1104  0.1939
    1W        W49506  16.955   7.716   9.421  0.0512 -0.1091  0.1606
    1W        W49507   3.074  26.489   7.418  0.1444  0.3306  0.3384
    1W        W49508  25.382  10.978   7.798  0.2060 -0.4096 -0.1003
    1W        W49509   9.598   9.264   0.733 -0.1481 -0.2025 -0.0561
    1W        W49510   5.168  14.052   9.358  0.1310  0.0965 -0.2287
    1W        W49511  22.491  15.933   9.113  0.2009 -0.2100 -0.0074
    1W        W49512  23.367  15.742   0.085 -0.1823 -0.0551  0.0908
    1W        W49513  21.033   6.272   2.215 -0.0661  0.1204 -0.2500
    1W        W49514   0.695   1.834   2.323  0.2167 -0.0910  0.0223
    1W        W49515  24.301  22.806   7.878  0.1662 -0.0480 -0.1819
    1W        W49516  17.228  15.578   9.230 -0.1034 -0.1179 -0.2599
    1W        W49517   5.254   0.908   8.172 -0.2604  0.2094 -0.0424
    1W        W49518   6.913  10.261   6.448  0.3480  0.3271  0.0729
    1W        W49519   3.237  24.221   0.051  0.2448 -0.0378 -0.2342
    1W        W49520  23.125  21.997   7.458  0.1410  0.0010  0.1360
    1W        W49521  28.961  10.345   1.292  0.1545  0.0579  0.1206
    1W        W49522   1.870  27.867   0.762 -0.1042 -0.2426  0.3668
    1W        W49523  11.299   5.871   2.640 -0.0616 -0.0452  0.3809
    1W        W49524  17.453  29.451   1.237 -0.0756 -0.0734 -0.0281
    1W        W49525   6.412  16.714   7.841 -0.1623 -0.1558 -0.2675
    1W        W49526   9.103  16.766   7.795 -0.0949 -0.0430 -0.1334
    1W        W49527  13.331  26.592   9.122 -0.2178 -0.0401  0.1256
    1W        W49528  19.048   5.420   1.591  0.1809 -0.1849  0.2401
    1W        W49529  27.314   7.841   7.603  0.2855  0.3621 -0.0815
    1W        W49530  23.287  20.482   2.595  0.0628  0.1331 -0.2054
    1W        W49531   1.992  20.398   7.954 -0.1499  0.2760  0.0610
    1W        W49532   5.082  10.639   6.785 -0.1014  0.0238 -0.0182
    1W        W49533  12.132  22.692   0.421 -0.1469  0.0040 -0.0522
    1W        W49534  17.762  15.011   0.588 -0.2511 -0.0264 -0.2402
    1W        W49535   1.471  13.074   7.536 -0.1743  0.0887  0.1317
    1W        W49536   8.002  21.843   7.504 -0.4831  0.0004 -0.0414
    1W        W49537  23.096  27.379   2.723  0.2892 -0.0661 -0.0533
    1W        W49538  14.987   2.018   4.119 -0.0215  0.0361 -0.1777
    1W        W49539   1.552  26.662   6.119  0.4111  0.0147 -0.1534
    1W        W49540   7.778  16.962   5.954  0.1079 -0.1284  0.2339
    1W        W49541  11.867  28.766   1.234  0.0250 -0.1388 -0.1300
    1W        W49542  21.809  29.770   2.124  0.0803  0.0447  0.0364
    1W        W49543  25.272  22.042   0.652 -0.2645  0.1358 -0.2425
    1W        W49544   6.017   8.911   7.131 -0.2515  0.1240 -0.1056
    1W        W49545  21.447   8.174   1.480  0.2490 -0.0465 -0.2636
    1W        W49546  10.363  17.381   1.032  0.0278 -0.0643  0.0430
    1W        W49547  10.734   5.039   1.076  0.0532 -0.2142 -0.3319
    1W        W49548   8.342  26.449   0.416 -0.1311 -0.1170 -0.0615
    1W        W49549   6.401  13.303   7.205 -0.1353 -0.0290 -0.1427
    1W        W49550  25.214  20.943   1.994  0.3076  0.0288  0.0215
    1W        W49551  16.581  17.077   5.688 -0.0003 -0.0991  0.1902
    1W        W49552   3.203  26.408   7.871  0.1594  0.3081  0.0957
    1W        W49553  19.401  23.977   8.211 -0.1706  0.0918 -0.1293
    1W        W49554  29.097  27.382   1.807  0.0361  0.3573 -0.1203
    1W        W49555  22.739   4.614   3.020  0.0662 -0.0309  0.1301
    1W        W49556  15.048  27.652   7.890  0.1405 -0.3139 -0.0748
    1W        W49557  26.339   6.318   1.376  0.0732 -0.0264 -0.2532
    1W        W49558  27.179   7.500   7.235  0.2263 -0.0234 -0.3795
    1W        W49559   6.113  22.594   8.374 -0.0364  0.2820  0.0223
    1W        W49560  26.629   7.406   1.719  0.0539 -0.0831  0.1656
    1W        W49561   2.994   3.906   1.549  0.0240 -0.1711 -0.3064
    1W        W49562  10.023  16.276   9.151  0.1422 -0.3000 -0.0137
    1W        W49563  28.316   3.169   7.347  0.0928 -0.1042 -0.0517
    1W        W49564   0.143   2.620   7.515 -0.1831  0.2129 -0.1851
    1W        W49565  25.441  21.658   2.372  0.1181  0.0442 -0.1220
    1W        W49566   7.312  19.273   6.502  0.1486  0.0626 -0.1786
    1W        W49567  17.250  17.893   8.623 -0.1078 -0.1456 -0.3387
    1W        W49568   4.180   5.510   4.677 -0.1896  0.3760  0.0042
    1W        W49569   2.355  12.108   0.154 -0.0143 -0.0418  0.1209
    1W        W49570  23.506  25.032   8.506 -0.2962 -0.1065 -0.2691
    1W        W49571   0.438  29.349   1.064 -0.0506  0.1052  0.1931
    1W        W49572  24.659  13.322   1.918 -0.3141 -0.1239  0.1837
    1W        W49573   5.919   5.865   8.921 -0.1803  0.2758 -0.0359
    1W        W49574   6.690  25.038   7.830 -0.0315  0.1001  0.2609
    1W        W49575   8.834   1.829   0.279 -0.0351  0.0496 -0.1769
    1W        W49576  13.611  22.597   5.559  0.2222 -0.1206  0.1043
    1W        W49577  27.946  13.067   9.156  0.0594  0.0943 -0.1338
    1W        W49578  17.691  13.865   8.257 -0.0513 -0.0204  0.0152
    1W        W49579   8.969  15.615   7.487  0.4065  0.0444 -0.4881
    1W        W49580  16.277  20.859   7.533 -0.1034 -0.1744  0.2409
    1W        W49581  24.493   8.454   3.640  0.2849  0.0210  0.2893
    1W        W49582   3.625  14.869   6.334  0.0844 -0.2820  0.1736
    1W        W49583  14.122  13.652   8.022 -0.0010 -0.1092  0.1488
    1W        W49584  15.650  11.890   0.738 -0.0637  0.0509 -0.0686
    1W        W49585   0.795  22.160   0.599  0.2040 -0.0108 -0.5211
    1W        W49586  17.378  19.103   8.276  0.4333 -0.0197  0.0448
    1W        W49587  19.823  10.806   0.607 -0.0890 -0.1083  0.0066
    1W        W49588   3.271  12.124   0.010 -0.1177 -0.0844  0.0399
    1W        W49589  20.758   9.585   8.250  0.1501 -0.2856  0.1485
    1W        W49590  26.443  22.884   2.616 -0.1764  0.0189  0.3326
    1W        W49591   3.518  20.463   7.510 -0.0025 -0.0324  0.0778
    1W        W49592  19.998  25.030   0.420  0.1797 -0.0200  0.0873
    1W        W49593  19.066  11.978   8.626  0.0070 -0.0404 -0.0087
    1W        W49594  13.461  21.486   0.907  0.2168 -0.1645  0.2513
    1W        W49595   3.968  24.756   8.424  0.0605  0.2070 -0.1498
    1W        W49596   7.767   3.798   1.769  0.3486 -0.3182 -0.0430
    1W        W49597  21.405  22.761   0.274  0.2284  0.2994 -0.2933
    1W        W49598  27.809  19.070   6.684 -0.2953 -0.2454 -0.0379
    1W        W49599  14.920  23.068   8.483  0.0111 -0.1826 -0.1090
    1W        W49600  23.059  13.891   2.559  0.1819 -0.0167  0.1787
    1W        W49601   9.683  20.131   6.544  0.0593  0.0158 -0.2621
    1W        W49602  26.178  11.131   9.017  0.3144  0.2199  0.1530
    1W        W49603   8.336   6.106   3.019  0.2180  0.0014  0.0798
    1W        W49604  14.002  20.403   9.483  0.3954  0.1008  0.1164
    1W        W49605   9.865  23.553   2.368  0.0502  0.0882  0.2472
    1W        W49606  15.978  15.587   7.942 -0.0185  0.1192  0.2050
    1W        W49607  25.525  27.660   7.192 -0.1081 -0.0119  0.0749
    1W        W49608  16.382  12.454   9.106 -0.1246 -0.0090 -0.1223
    1W        W49609  26.151   0.303   7.800 -0.1186 -0.0794  0.0251
    1W        W49610  25.549  22.187   7.501 -0.1509  0.1661  0.1142
    1W        W49611  14.156  10.758   8.719  0.2121  0.1371 -0.0057
    1W        W49612  27.176  16.575   2.190  0.1300 -0.0794  0.1271
    1W        W49613  12.490  28.295   1.626 -0.2437  0.2744  0.0070
    1W        W49614   6.203   1.419   7.549  0.1007  0.4635  0.0427
    1W        W49615  20.168   6.254   2.706 -0.4064 -0.0168 -0.2853
    1W        W49616  19.592  21.535   7.041  0.0953 -0.0340  0.0463
    1W        W49617   3.826  26.198   9.217 -0.1187 -0.1443 -0.2919
    1W        W49618   1.107  20.765   9.522 -0.1230 -0.3683  0.0541
    1W        W49619  23.761   5.611   2.091  0.0818  0.1376 -0.0790
    1W        W49620   6.924  13.901   6.760  0.3469  0.0088 -0.0965
    1W        W49621  16.147  17.145   0.670 -0.0887  0.0008 -0.1670
    1W        W49622   4.800  19.412   7.178 -0.1560 -0.3071 -0.0942
    1W        W49623  16.428  24.772   7.553  0.3039 -0.2457 -0.2835
    1W        W49624   2.489  16.627   0.627  0.1855  0.2978 -0.0407
    1W        W49625  18.910  26.691   0.425 -0.0978 -0.0045 -0.1985
    1W        W49626  29.600  23.438   8.428  0.0644 -0.2569 -0.0950
    1W        W49627  20.208  19.468   8.944  0.0617  0.1521  0.2400
    1W        W49628  28.391   3.158   0.476  0.0276  0.2201  0.2551
    1W        W49629  17.410  29.440   8.728 -0.0325  0.0327 -0.1302
    1W        W49630  10.545   3.190   1.743  0.0099  0.2479  0.1425
    1W        W49631  23.563   2.558   8.257 -0.0821  0.1676 -0.1549
    1W        W49632   1.623  14.112   0.381  0.1010 -0.2946 -0.1988
    1W        W49633  20.046  16.324   8.013 -0.1482  0.1764 -0.0290
    1W        W49634   0.600  18.859   9.412 -0.0502  0.1500 -0.3309
    1W        W49635   2.596  20.230   7.210  0.0575 -0.1008  0.0295
    1W        W49636   0.782  26.536   8.131 -0.0965  0.1093 -0.1154
    1W        W49637  13.675  25.587   6.708 -0.0210 -0.2648 -0.1544
    1W        W49638  26.175  13.576   2.091  0.0378 -0.0999  0.1972
    1W        W49639   8.434  29.287   7.472 -0.0257 -0.1989  0.1043
    1W        W49640   4.712  14.968   0.827 -0.0892 -0.0146 -0.0204
    1W        W49641  29.524   0.046   2.265  0.0296  0.1438  0.1853
    1W        W49642  14.985  25.203   8.615 -0.1378  0.0841 -0.0770
    1W        W49643  13.741  22.843   1.345 -0.0304 -0.2702  0.2793
    1W        W49644   2.948   2.008   0.632 -0.0084  0.3719 -0.2945
    1W        W49645  20.182  26.554   9.071 -0.0225  0.0698 -0.2548
    1W        W49646   7.001   9.651   7.514  0.2748  0.1113 -0.0893
    1W        W49647   8.662  22.535   1.428 -0.0591 -0.1806  0.2594
    1W        W49648  12.031   5.181   3.012  0.0311  0.0879  0.5715
    1W        W49649   5.611  12.428   1.899  0.2102  0.3660  0.0694
    1W        W49650   9.972  20.118   2.825  0.0107  0.2296 -0.0287
    1W        W49651  15.287   1.080   1.801  0.0608  0.1409 -0.3400
    1W        W49652  14.220  16.817   8.852  0.0506  0.1958  0.2567
    1W        W49653   6.048   8.219   1.138  0.3400  0.3466  0.2518
    1W        W49654   6.691  27.856   5.861 -0.3415 -0.0476  0.0788
    1W        W49655   7.692   4.363   1.942  0.1623 -0.2356  0.1000
    1W        W49656   3.391  21.358   1.084 -0.0847  0.3450  0.1077
    1W        W49657  10.671  11.773   8.062  0.1927 -0.0279 -0.1434
    1W        W49658  16.983  14.370   0.455  0.1623  0.3212 -0.0144
    1W        W49659  13.411   3.818   2.907 -0.4280 -0.0448 -0.0260
    1W        W49660   3.367  14.310   7.262 -0.0113 -0.5435 -0.2800
    1W        W49661  29.158  22.868   0.972  0.0085 -0.0888 -0.1518
    1W        W49662   7.835  25.279   9.360  0.3189 -0.0872  0.0722
    1W        W49663  22.033  25.744   1.374  0.0573 -0.1121 -0.0955
    1W        W49664   1.174  15.200   1.201 -0.1282 -0.0828  0.1764
    1W        W49665  24.603  21.990   7.545 -0.2138  0.0296  0.3896
    1W        W49666   8.942   9.194   1.469 -0.0350 -0.1969  0.3046
    1W        W49667   8.219   4.757   1.711 -0.0365 -0.2665  0.0548
    1W        W49668   5.964   4.115   1.833 -0.4087  0.1811 -0.1888
    1W        W49669  28.936  29.241   1.984  0.3842 -0.1541 -0.2717
    1W        W49670  18.520  23.298   7.107 -0.0636  0.0585 -0.0524
    1W        W49671   5.325   0.588   1.545 -0.1527  0.1020 -0.0660
    1W        W49672  22.162   8.406   2.229 -0.1016  0.0751  0.1077
    1W        W49673  15.610  13.808   8.070 -0.1936  0.0309 -0.4283
    1W        W49674  12.966  23.895   8.317  0.4001  0.1295 -0.2955
    1W        W49675  17.803  14.552   6.830 -0.1732  0.0476  0.0466
    1W        W49676   5.834  19.288   2.896 -0.0251  0.1836  0.2254
    1W        W49677  12.777   4.688   8.499 -0.0208  0.1026  0.1371
    1W        W49678  12.865  20.339   6.574  0.0967  0.1273  0.2724
    1W        W49679   7.737   9.163   2.815 -0.1568 -0.1671 -0.3359
    1W        W49680   4.352  28.781   6.651 -0.1667 -0.1034  0.0162
    1W        W49681  16.901   3.178   3.886  0.1712 -0.1212 -0.2913
    1W        W49682   9.396  11.623   2.288 -0.0455 -0.1768 -0.0135
    1W        W49683   0.050  20.022   0.529  0.1104  0.3101  0.1114
    1W        W49684  12.803   5.273   8.475 -0.1399 -0.5055  0.0409
    1W        W49685  16.630  20.300   5.568  0.0301  0.0181 -0.0624
    1W        W49686  29.187  19.002   3.007 -0.1871 -0.0709 -0.2656
    1W        W49687  22.205  29.641   8.445 -0.2506 -0.1191 -0.0079
    1W        W49688  12.243   9.272   7.975 -0.0768  0.4187  0.1642
    1W        W49689  12.457   2.851   0.134  0.1523 -0.4727 -0.0836
    1W        W49690  27.873   8.996   1.577  0.0201  0.0045  0.2272
    1W        W49691  13.734   1.980   2.570  0.0154  0.1516  0.0177
    1W        W49692  26.705   0.558   1.929  0.0547  0.2017 -0.0596
    1W        W49693  17.476   0.227   2.511 -0.0290  0.1725  0.1254
    1W        W49694  26.954  11.052   8.455 -0.1097 -0.5959  0.2335
    1W        W49695  28.740  24.843   0.829  0.3491  0.0178 -0.0691
    1W        W49696   9.655  15.291   9.328 -0.2274 -0.1516  0.1204
    1W        W49697   4.392  26.194   7.102 -0.2010  0.0481  0.0708
    1W        W49698  25.432  22.739   1.563  0.0356 -0.0242 -0.0934
    1W        W49699  27.514  18.067   0.299 -0.0817 -0.1902  0.2212
    1W        W49700  18.674  22.882   0.219 -0.0312  0.0437 -0.2782
    1W        W49701   0.210   1.443   0.433 -0.0404 -0.3062  0.3101
    1W        W49702   2.468  26.922   1.405 -0.0217 -0.1962 -0.0521
    1W        W49703  22.473  25.688   0.399 -0.1272  0.3104 -0.2341
    1W        W49704   0.317  11.835   3.022 -0.2939  0.4157  0.1173
    1W        W49705  25.875  17.251   2.054  0.1001  0.1297  0.1569
    1W        W49706  25.102   5.942   1.770 -0.0280  0.1607 -0.0716
    1W        W49707  25.020  16.340   2.280  0.0124 -0.0588 -0.1186
    1W        W49708  11.705  10.442   8.508 -0.0169  0.1054  0.1511
    1W        W49709  13.504  11.771   1.792 -0.3390 -0.1908  0.0306
    1W        W49710  16.005  27.190   7.212  0.1917  0.0903  0.0184
    1W        W49711  14.387  29.500   1.490 -0.3184 -0.0623  0.0685
    1W        W49712   4.650  10.229   8.343 -0.1187 -0.0470  0.2302
    1W        W49713   2.202  29.541   1.618 -0.3548 -0.3195 -0.0416
    1W        W49714  25.058  11.032   1.983  0.3210  0.0670  0.2090
    1W        W49715  23.232  13.770   0.769  0.3074 -0.0326 -0.0887
    1W        W49716   0.099  18.178   1.354 -0.0389  0.3163 -0.0431
    1W        W49717  10.209  12.669   6.658 -0.1236 -0.2895 -0.1325
    1W        W49718   5.475  25.633   6.021  0.0532  0.2123  0.1456
    1W        W49719   4.942   7.335   7.002 -0.3328 -0.1619  0.1344
    1W        W49720  21.228  21.493   1.331 -0.0641 -0.3951  0.0110
    1W        W49721  24.857   9.703   2.528  0.2470 -0.2738  0.2051
    1W        W49722   3.073   3.498   2.411 -0.2486 -0.0233 -0.2734
    1W        W49723  11.287  21.545   1.233  0.1238  0.2650 -0.0603
    1W        W49724  23.995   4.252   3.543  0.1418 -0.0417  0.2646
    1W        W49725  22.962  16.748   6.783 -0.2460  0.2227  0.0171
    1W        W49726  28.349   0.437   8.202  0.1435  0.0350 -0.2585
    1W        W49727   2.796  20.281   2.395 -0.0581  0.0231 -0.0995
    1W        W49728   4.031  15.696   2.083 -0.1246  0.2610  0.1579
    1W        W49729   5.445  13.757   9.044  0.0841 -0.1297  0.1261
    1W        W49730   8.028  19.438   0.248  0.0513 -0.0896 -0.0082
    1W        W49731  20.673   3.779   1.678  0.3031 -0.0595  0.0562
    1W        W49732   1.892  29.154   6.706  0.0571  0.4160 -0.1530
    1W        W49733  28.499  19.049   8.001  0.0750  0.0846  0.0475
    1W        W49734  11.967   5.590   9.119  0.0567  0.3784 -0.3256
    1W        W49735  23.829  16.812   8.241 -0.1509  0.1717 -0.0823
    1W        W49736   5.192  18.544   9.031 -0.2902 -0.0377 -0.0266
    1W        W49737  17.389   8.897   0.655  0.0824  0.0046 -0.0892
    1W        W49738  13.570  20.777   8.645 -0.1499 -0.2610  0.2561
    1W        W49739   0.771   0.602   9.496  0.1610 -0.0820  0.1377
    1W        W49740   8.453  26.374   9.233 -0.1644 -0.3223 -0.5912
    1W        W49741  15.538  23.564   6.798 -0.1881  0.1940 -0.3334
    1W        W49742  28.530  10.247   7.225 -0.0945 -0.0133 -0.1645
    1W        W49743  24.846  12.837   2.116 -0.0999  0.0940  0.1064
    1W        W49744   7.354   6.310   1.392 -0.1476 -0.1282  0.0180
    1W        W49745   5.976  14.743   0.550 -0.1277  0.0659  0.2205
    1W        W49746   8.692   7.691   1.239 -0.1293  0.2755  0.1687
    1W        W49747  18.162   4.663   8.688 -0.0821  0.0251 -0.0022
    1W        W49748   4.926   5.723   6.140  0.0446  0.0540  0.1621
    1W        W49749  26.461  18.916   2.935 -0.2135 -0.1947 -0.1516
    1W        W49750  17.354  19.153   1.573 -0.1885 -0.0060  0.0824
    1W        W49751   6.791  23.351   6.729 -0.3226  0.3095  0.0578
    1W        W49752   4.389  19.669   0.844 -0.0036 -0.0900 -0.1355
    1W        W49753   6.244   0.514   1.644  0.1516  0.1707  0.1077
    1W        W49754  29.714  26.109   7.899 -0.1445  0.0195  0.2847
    1W        W49755  17.503   6.293   3.244  0.0331 -0.1668  0.2551
    1W        W49756  29.281  23.211   6.657  0.1347  0.0236 -0.0840
    1W        W49757   3.695  24.864   1.765 -0.1579 -0.3289 -0.1192
    1W        W49758   7.294  26.631   7.729  0.3475 -0.0066 -0.1784
    1W        W49759  19.154  24.043   6.138  0.1910 -0.0993 -0.1865
    1W        W49760  10.793   2.744   1.843 -0.1707 -0.2606 -0.0343
    1W        W49761  14.707   1.142   1.136 -0.1174  0.0388  0.1069
    1W        W49762  15.339  23.461   1.302 -0.2010  0.1532 -0.0089
    1W        W49763  28.535  20.996   0.054 -0.1128  0.0174  0.1982
    1W        W49764  15.318  29.326   8.556 -0.3218 -0.3076 -0.1822
    1W        W49765   8.661   8.393   7.211 -0.0019 -0.2385  0.1298
    1W        W49766  13.148  20.214   6.993 -0.2001 -0.3826 -0.3465
    1W        W49767   2.442   6.035   7.715  0.0574  0.0840  0.1907
    1W        W49768   2.841   2.809   2.400  0.0457 -0.3433 -0.1397
    1W        W49769   0.523  14.355   2.227 -0.0922  0.0687  0.0306
    1W        W49770   1.999  12.545   6.966 -0.0421 -0.1139 -0.3481
    1W        W49771  26.956  25.564   0.883  0.1261  0.2943 -0.3048
    1W        W49772   1.594  28.293   9.053  0.1671  0.1209  0.1803
    1W        W49773   0.375  11.127   6.208 -0.1477  0.1020  0.1028
    1W        W49774   4.189   3.107   6.523 -0.0410 -0.3047  0.0574
    1W        W49775  17.482  25.953   6.905  0.0301  0.2189  0.3225
    1W        W49776  20.025  25.079   6.077  0.0654 -0.3348  0.0910
    1W        W49777   2.969  18.028   9.044 -0.0445 -0.1330 -0.0320
    1W        W49778  29.704   8.840   1.096 -0.0181  0.2768 -0.0312
    1W        W49779  10.192  23.756   8.946  0.1411 -0.1219  0.0394
    1W        W49780  27.499  24.816   8.461  0.0119 -0.1891  0.0055
    1W        W49781  19.784  19.527   0.015 -0.4323  0.0615  0.3411
    1W        W49782  10.180  19.850   6.835 -0.0674 -0.3701  0.0738
    1W        W49783   9.647  14.072   8.065  0.1245  0.4990 -0.1962
    1W        W49784   7.670  13.034   8.186  0.3086 -0.4565  0.1273
    1W        W49785  26.432   6.396   2.715 -0.0243 -0.2101 -0.4902
    1W        W49786   9.634  16.570   9.000 -0.0135  0.0120 -0.3928
    1W        W49787  27.903  11.375   9.202 -0.0446  0.0651  0.0310
    1W        W49788  24.867  15.735   8.648 -0.1582  0.1765 -0.2172
    1W        W49789   9.570   4.486   1.402 -0.2135 -0.1694  0.2546
    1W        W49790  25.828  19.349   6.028 -0.0248  0.1762  0.1881
    1W        W49791  24.648  13.584   0.084 -0.2143  0.1588 -0.0352
    1W        W49792  28.786   2.904   0.647 -0.3944  0.1886 -0.2776
    1W        W49793  12.275   8.493   7.931  0.2154  0.3793 -0.2040
    1W        W49794  11.741  18.742   1.740  0.0689 -0.0509 -0.2498
    1W        W49795  23.975   7.748   8.894 -0.3320 -0.2702  0.1694
    1W        W49796  18.187  23.649   7.360 -0.1906 -0.0168 -0.1622
    1W        W49797  27.280  12.057   1.377 -0.0363  0.1446  0.0320
    1W        W49798  17.121  27.598   2.163  0.0251 -0.1457  0.2720
    1W        W49799   2.189  23.581   2.000  0.0524  0.0216 -0.2358
    1W        W49800  23.667   1.533   0.638 -0.1431  0.1036 -0.2435
    1W        W49801  21.544   3.757   2.883  0.0076  0.0853 -0.0585
    1W        W49802  18.915  21.970   9.391  0.1651 -0.3430 -0.0197
    1W        W49803   3.980  27.249   9.209 -0.0819  0.1918  0.0145
    1W        W49804   3.968  22.582   7.456  0.1637 -0.4341 -0.0651
    1W        W49805   5.414   5.005   0.498  0.1786 -0.0069  0.0852
    1W        W49806  25.392   6.508   8.982 -0.1758 -0.0425 -0.0598
    1W        W49807  13.071   3.571   1.199  0.1052  0.0373 -0.0750
    1W        W49808   0.568  18.573   7.662 -0.1130  0.1166 -0.0491
    1W        W49809   4.793  18.290   8.863  0.3339 -0.1303 -0.0095
    1W        W49810  21.791  28.196   1.491 -0.0657  0.1537  0.0974
    1W        W49811   0.735  23.496   0.582  0.1449 -0.0389  0.3621
    1W        W49812   2.935  14.229   7.587  0.4284 -0.2078 -0.3509
    1W        W49813   8.047  15.446   0.622  0.1674 -0.0848 -0.2434
    1W        W49814  20.951  25.191   9.222 -0.1138 -0.1755 -0.0470
    1W        W49815  22.402   6.378   0.628 -0.3334  0.0129  0.0652
    1W        W49816  20.540  14.820   7.829  0.0633  0.2648  0.2611
    1W        W49817   9.594  19.530   6.219  0.1033 -0.1022 -0.0433
    1W        W49818  24.229   1.207   1.592  0.1133 -0.0734  0.1412
    1W        W49819  26.339  28.020   1.245  0.3939 -0.2383  0.2799
    1W        W49820  13.032  23.284   9.110 -0.1678 -0.2134  0.3612
    1W        W49821  25.298   7.426   2.009  0.1706 -0.0590 -0.0608
    1W        W49822  21.094  22.728   9.343 -0.1411  0.0783 -0.1021
    1W        W49823   5.592   9.623   2.762  0.1453 -0.3075  0.1651
    1W        W49824  18.312  29.850   1.431  0.0718 -0.0514 -0.2877
    1W        W49825   7.437   0.329   8.357  0.0482 -0.0429 -0.2248
    1W        W49826  25.068  16.043   1.185 -0.2020  0.0334 -0.0410
    1W        W49827  24.261   8.162   7.895 -0.0417 -0.3036 -0.3196
    1W        W49828  26.471   1.082   0.955  0.1803  0.5484 -0.1019
    1W        W49829   7.635  11.897   3.095  0.0004  0.0181  0.1142
    1W        W49830   5.278  11.491   8.151  0.1409  0.2076  0.0638
    1W        W49831   9.713  18.640   7.247  0.1717 -0.0843 -0.0920
    1W        W49832  19.635  15.404   7.139 -0.1015  0.1744 -0.0289
    1W        W49833  15.739   0.268   7.696 -0.0161 -0.0732 -0.1127
    1W        W49834  21.204  11.270   8.272 -0.2166 -0.0083  0.0648
    1W        W49835  19.580  29.043   1.405 -0.2591 -0.1823 -0.0984
    1W        W49836  23.005  15.774   7.679  0.2621 -0.3406  0.1952
    1W        W49837  23.798  10.798   7.279  0.3447 -0.0828 -0.2504
    1W        W49838   5.312  25.591   7.269 -0.1630 -0.2988 -0.2846
    1W        W49839  12.882  25.355   8.274  0.0393  0.0584 -0.0801
    1W        W49840   7.053  23.286   2.099  0.2888 -0.1209 -0.1606
    1W        W49841  17.152   4.531   0.054  0.1852 -0.1030 -0.0274
    1W        W49842  28.300  24.603   2.082 -0.1639 -0.1243  0.0472
    1W        W49843  23.322  26.867   1.564  0.1186 -0.3283  0.0609
    1W        W49844  20.715  26.301   7.372  0.3226  0.1637 -0.0817
    1W        W49845  16.468  14.847   1.921 -0.2106 -0.2391 -0.0868
    1W        W49846  23.411  29.439   8.636 -0.0635  0.0970  0.4973
    1W        W49847  14.091  26.278   7.159  0.1205  0.0956  0.0074
    1W        W49848  13.014  15.254   1.730 -0.0024 -0.2154 -0.1332
    1W        W49849  27.836  22.966   6.683 -0.1583 -0.1308 -0.1003
    1W        W49850  19.306  23.504   0.978 -0.2141  0.0817  0.0568
    1W        W49851  17.283  20.540   6.789 -0.1817  0.2890 -0.1713
    1W        W49852   9.648   1.157   9.463  0.0276  0.0262  0.0164
    1W        W49853  24.176   5.524   1.545 -0.2834 -0.0517  0.1426
    1W        W49854  13.950   4.345   8.722  0.3174  0.1828 -0.0638
    1W        W49855  20.322   1.456   0.696 -0.0106 -0.0146 -0.1389
    1W        W49856  12.288   4.290   7.549 -0.0072 -0.2991  0.1274
    1W        W49857   3.585  12.048   6.676 -0.2388  0.0647  0.1013
    1W        W49858   1.527   3.055   0.822  0.4349 -0.1428 -0.0032
    1W        W49859  23.775   4.743   2.877 -0.3016 -0.0559 -0.0652
    1W        W49860   4.969  29.527   0.875  0.1815 -0.2184  0.1340
    1W        W49861  23.029   0.480   8.293 -0.1687  0.0252 -0.2517
    1W        W49862  24.751  26.793   2.760  0.1912  0.2309 -0.0324
    1W        W49863  17.509  24.880   9.469  0.1649 -0.0806  0.0696
    1W        W49864  28.459  10.065   7.806 -0.0797 -0.0891  0.0198
    1W        W49865   8.036  10.543   1.934 -0.2258  0.1970  0.1689
    1W        W49866  26.301   1.027   7.197 -0.1865  0.1050  0.0077
    1W        W49867  25.924  19.121   0.074  0.2033 -0.1385 -0.0105
    1W        W49868   6.675   0.389   2.018  0.1645 -0.1085  0.2506
    1W        W49869   2.534  22.329   6.998 -0.0196  0.0209  0.4452
    1W        W49870   7.698  20.485   8.546  0.2166 -0.0827 -0.1416
    1W        W49871  28.278   0.441   1.940  0.1271 -0.0945  0.1673
    1W        W49872   0.556   5.805   1.737  0.2282 -0.0052 -0.2018
    1W        W49873  28.074  21.165   0.326  0.0464  0.0044 -0.2594
    1W        W49874   9.675   3.471   9.249  0.3117 -0.1253 -0.2697
    1W        W49875  13.347   2.084   2.818  0.0589  0.0649  0.3446
    1W        W49876   9.263  25.357   6.628 -0.0631 -0.1235 -0.0935
    1W        W49877  19.413  16.003   6.765 -0.0918  0.2144  0.0455
    1W        W49878  10.036  11.176   2.778  0.0448  0.1100  0.2251
    1W        W49879   0.572  29.576   7.325  0.1104  0.0762  0.0450
    1W        W49880  22.433   9.832   1.660  0.0941  0.0872 -0.1287
    1W        W49881  11.042  22.788   0.668  0.0033  0.1855  0.1030
    1W        W49882  19.538  26.619   7.255  0.0111  0.3357  0.1560
    1W        W49883   8.866   1.294   8.920 -0.1180 -0.0034  0.0067
    1W        W49884  10.313  28.481   2.255  0.0918 -0.3046 -0.0115
    1W        W49885   8.049  13.121   0.841  0.1193  0.2311 -0.0222
    1W        W49886  26.793  20.603   2.977 -0.0063 -0.0068  0.3272
    1W        W49887   4.862  24.077   1.676 -0.1593 -0.3224 -0.0817
    1W        W49888   2.682  14.952   6.102 -0.2320 -0.0211 -0.2221
    1W        W49889   2.291  25.171   5.520 -0.1308  0.0858 -0.1188
    1W        W49890  23.316  23.371   7.078 -0.0122 -0.0916 -0.2843
    1W        W49891   4.090   0.816   6.676 -0.1457 -0.2948 -0.3527
    1W        W49892  10.984  21.797   1.679  0.1605  0.0310  0.3807
    1W        W49893  11.957  23.104   8.578  0.0691  0.1717 -0.0439
    1W        W49894  10.699   3.786   4.237  0.1752  0.0956  0.0996
    1W        W49895  18.806   5.994   8.539 -0.1602  0.3550 -0.1856
    1W        W49896  14.393  25.278   6.205 -0.1500  0.0338  0.2237
    1W        W49897  16.847   2.562   1.778  0.1520  0.0456  0.1914
    1W        W49898  29.623  21.969   6.719 -0.0236 -0.1206  0.1509
    1W        W49899   3.372  23.138   1.727  0.0475  0.1829 -0.0119
    1W        W49900  21.526  18.019   0.003  0.0022  0.0289 -0.0014
    1W        W49901  10.063   6.764   3.067 -0.2314  0.1614 -0.2562
    1W        W49902  13.272  22.962   6.296 -0.1060 -0.0207 -0.1651
    1W        W49903  24.146  22.016   9.512 -0.1846 -0.4005  0.0016
    1W        W49904   0.428  14.243   8.650 -0.2040  0.0978  0.1609
    1W        W49905  26.279  26.756   0.769 -0.4304 -0.0521 -0.0596
    1W        W49906  25.993   3.234   2.000  0.0843  0.0060 -0.1052
    1W        W49907  24.314  25.187   0.530  0.1020  0.0927 -0.0900
    1W        W49908  28.735  15.219   6.542  0.2803 -0.2433  0.0653
    1W        W49909   8.941  11.776   2.573 -0.3268 -0.1550 -0.2885
    1W        W49910  28.384  23.243   8.874  0.0245 -0.0776 -0.1111
    1W        W49911  12.696  13.279   8.939 -0.2165 -0.2934  0.2443
    1W        W49912  26.457  18.522   1.928 -0.0723 -0.1046 -0.2099
    1W        W49913  17.557  10.016   9.250 -0.0035 -0.1081  0.0486
    1W        W49914  20.081   4.540   4.267 -0.2552  0.0978  0.2712
    1W        W49915  12.510  17.897   8.320 -0.2299 -0.0693 -0.0579
    1W        W49916   2.555  19.228   6.520 -0.0488  0.2704  0.0909
    1W        W49917  12.300   3.227   8.193  0.1083  0.1021 -0.2304
    1W        W49918   0.355  13.791   6.760 -0.3714  0.0482  0.0628
    1W        W49919  25.200  11.255   9.065 -0.0443 -0.1033 -0.0090
    1W        W49920  28.245  20.325   7.584 -0.1947  0.5059 -0.2408
    1W        W49921  20.097  29.494   3.051 -0.1361  0.2599  0.0488
    1W        W49922  10.248  13.134   8.777 -0.1111 -0.1346 -0.3301
    1W        W49923  14.113  26.307   2.069  0.0798 -0.2642  0.1815
    1W        W49924  17.483  26.057   8.409 -0.1700 -0.0515 -0.1699
    1W        W49925  10.192  19.713   1.334  0.2109 -0.4448 -0.1049
    1W        W49926  27.655  27.257   7.514 -0.1015 -0.1683  0.0400
    1W        W49927  25.651   0.203   2.276 -0.0376 -0.0230  0.1206
    1W        W49928   2.460  18.253   6.018  0.1066  0.0593  0.0266
    1W        W49929  27.526   8.970   0.362 -0.0984 -0.0229 -0.1701
    1W        W49930   6.854   6.137   6.088 -0.1390  0.0361  0.0841
    1W        W49931  26.103  25.395   3.233  0.3243  0.0041 -0.1328
    1W        W49932  10.686  16.778   2.620 -0.1194  0.2833 -0.0980
    1W        W49933   4.498  13.754   5.985 -0.0571 -0.0917 -0.2166
    1W        W49934  19.238  25.607   0.808  0.4740 -0.2399 -0.0897
    1W        W49935  20.765  17.923   0.545  0.1197 -0.0220  0.0096
    1W        W49936   0.919   0.605   9.024 -0.1061  0.0190  0.1378
    1W        W49937  28.532  18.821   8.946 -0.2244 -0.1429  0.0014
    1W        W49938  12.598  17.809   1.109 -0.0453 -0.5604  0.2862
    1W        W49939  21.326  12.248   2.593 -0.1396 -0.0373  0.2487
    1W        W49940   2.092  23.027   7.358 -0.0997  0.1077  0.0705
    1W        W49941   9.953   2.266   8.698 -0.1288 -0.1441  0.2155
    1W        W49942  26.739   6.024   2.489 -0.1073  0.1977  0.0951
    1W        W49943  12.479  28.631   2.657  0.2214 -0.0790 -0.4105
    1W        W49944  16.748   0.242   7.597 -0.0891 -0.0719  0.1272
    1W        W49945  10.240  14.757   0.200  0.0475  0.0198  0.3429
    1W        W49946  21.255  15.430   7.501 -0.2316  0.2021 -0.1928
    1W        W49947   7.434   9.713   2.070 -0.0075  0.4413 -0.0914
    1W        W49948  10.434   5.947   0.591 -0.0603 -0.3598  0.1498
    1W        W49949   9.391  15.731   0.009  0.1452 -0.2843 -0.0546
    1W        W49950   7.082  16.761   1.400  0.1839 -0.0993  0.0204
    1W        W49951  24.341  24.035   9.257  0.0549  0.2549  0.1200
    1W        W49952   6.499  16.262   1.220 -0.4385 -0.3503 -0.1114
    1W        W49953  27.171  17.284   9.145  0.0080 -0.0137  0.2121
    1W        W49954   3.990   8.288   1.143 -0.3689  0.1232  0.5921
    1W        W49955  29.376  28.390   0.221 -0.2225  0.0175  0.3072
    1W        W49956  15.532  21.702   5.745  0.1933 -0.0951  0.1229
    1W        W49957  10.009   9.793   2.895  0.2259  0.0018  0.4482
    1W        W49958  27.840  20.509   9.109 -0.0360 -0.2229 -0.4172
    1W        W49959  25.824  10.208   1.867 -0.1751 -0.0045  0.0263
    1W        W49960   9.288  16.177   8.764  0.3870 -0.0737 -0.0035
    1W        W49961  18.308   2.800   8.700 -0.3304  0.2815  0.1010
    1W        W49962   3.347  16.986   7.786 -0.1863 -0.2543  0.0136
    1W        W49963  29.617  26.879   2.308  0.0435  0.3963 -0.1909
    1W        W49964   1.106  20.295   5.912  0.2596 -0.1577 -0.0278
    1W        W49965  24.256  13.779   1.335  0.0838  0.1369 -0.0689
    1W        W49966  26.119   3.015   7.840  0.0391 -0.0310 -0.0401
    1W        W49967   5.070   2.505   2.861  0.1242  0.0058 -0.2791
    1W        W49968   0.448   7.981   6.067 -0.2157  0.0931 -0.0270
    1W        W49969   3.687  21.419   7.376  0.1358 -0.1539  0.0465
    1W        W49970  27.375  24.286   7.785  0.0668 -0.0905  0.0870
    1W        W49971   9.195  20.046   7.409  0.1326 -0.2044  0.0396
    1W        W49972  20.782   6.450   8.093 -0.1304 -0.2814 -0.0841
    1W        W49973   2.054  28.035   6.944 -0.1728 -0.2798  0.0692
    1W        W49974   6.479  13.305   2.402  0.2337  0.2198 -0.0022
    1W        W49975  26.208   8.474   7.894 -0.2239  0.1765 -0.0955
    1W        W49976   8.179   3.797   3.062  0.0981  0.2868  0.0073
    1W        W49977  23.066  27.041   0.721  0.1605  0.0022  0.0577
    1W        W49978  24.377   8.946   7.639 -0.2654  0.1089  0.0546
    1W        W49979   2.128  21.495   2.767 -0.2502  0.3560  0.0246
    1W        W49980  22.436  29.459   7.569  0.0898  0.1018 -0.1010
    1W        W49981  27.649  18.892   1.340 -0.0802  0.1344  0.2088
    1W        W49982  20.866   9.296   2.036  0.1525 -0.1407  0.0447
    1W        W49983  19.846   1.646   0.983  0.2052 -0.0765 -0.0373
    1W        W49984  11.867  23.766   6.432  0.1455  0.0461 -0.1777
    1W        W49985   6.735  16.338   6.303 -0.0146 -0.1381  0.0853
    1W        W49986   9.157   2.934   8.313  0.0690  0.1853  0.0161
    1W        W49987  27.456  10.586   1.741  0.2057  0.0405  0.1935
    1W        W49988   3.143  13.855   2.575  0.0654 -0.2111  0.1390
    1W        W49989  24.941  19.891   2.650  0.0053  0.2387  0.1120
    1W        W49990   3.653  22.950   7.689  0.0772  0.0231 -0.1731
    1W        W49991  29.311   4.907   6.660  0.1644 -0.2042  0.1302
    1W        W49992  26.109   1.872   2.136 -0.0157 -0.1328 -0.0095
    1W        W49993  23.103  25.949   0.682 -0.1725 -0.1143  0.0037
    1W        W49994  13.668  19.500   9.366  0.0312  0.1998  0.0439
    1W        W49995  20.634  11.511   7.938 -0.0910 -0.1472  0.0433
    1W        W49996   1.993  14.479   0.307 -0.1200 -0.2389  0.0161
    1W        W49997   9.771  18.240   2.003 -0.0022  0.2805 -0.1963
    1W        W49998  17.891  16.632   8.988 -0.2811 -0.0878  0.1814
    1W        W49999  22.041  28.910   2.250 -0.1029  0.2625 -0.0736
    1W        W50000  28.722   6.661   2.744 -0.1178 -0.1960 -0.1051
    1W        W50001   1.508   4.131   8.926  0.0074 -0.1678 -0.2416
    1W        W50002  26.723   7.855   1.466 -0.0466  0.1519 -0.1171
    1W        W50003  12.808   8.475   1.143  0.2083  0.0571  0.0906
    1W        W50004  13.780   2.616   8.341  0.4351  0.0067 -0.1200
    1W        W50005   0.763  19.067   1.792 -0.1536  0.0981 -0.2446
    1W        W50006  12.860  15.825   6.677 -0.0725  0.1017  0.1932
    1W        W50007  15.484  18.337   6.029 -0.1228  0.1924  0.1683
    1W        W50008  18.970  19.097   0.686  0.0861  0.0667  0.0032
    1W        W50009  10.800  19.753   9.421 -0.1181 -0.1323 -0.1801
    1W        W50010  28.202   5.652   7.281 -0.0299  0.4232  0.0904
    1W        W50011  12.483  13.481   0.587  0.0754  0.2822  0.2119
    1W        W50012  21.071  22.251   9.401  0.0258  0.1425  0.1134
    1W        W50013  12.650  24.289   0.826  0.2099 -0.2495  0.2856
    1W        W50014  25.711  14.164   6.947  0.0729  0.0588 -0.2524
    1W        W50015  13.342  24.766   8.602 -0.1066 -0.2867 -0.0250
    1W        W50016  28.986   6.695   1.725  0.2270  0.3193 -0.0203
    1W        W50017  12.985   1.838   9.118  0.2525  0.1127 -0.0404
    1W        W50018   8.647  18.544   0.179  0.2714  0.2977  0.0117
    1W        W50019  10.170   7.555   7.460  0.0163  0.0894 -0.2029
    1W        W50020   7.126   4.405   2.035  0.1184  0.0680  0.0392
    1W        W50021   0.283  12.022   0.570  0.1020 -0.2093 -0.2412
    1W        W50022  12.705  19.192   2.574  0.1408  0.4084  0.3868
    1W        W50023  24.463  27.256   1.973 -0.3793 -0.0764 -0.1153
    1W        W50024   4.491  15.770   6.998 -0.1501 -0.3079  0.3807
    1W        W50025  21.063   7.785   3.321  0.0174  0.3331  0.1092
    1W        W50026  23.850  27.044   3.134 -0.0698  0.3590 -0.1173
    1W        W50027  21.501   2.544   0.447 -0.1532  0.1485 -0.2445
    1W        W50028  20.817  24.075   1.095  0.0311  0.0667  0.2355
    1W        W50029   9.151  17.392   7.014  0.1531 -0.3532  0.0698
    1W        W50030  10.516   5.578   8.571  0.3746 -0.1750 -0.0825
    1W        W50031  29.416  28.502   2.030  0.0953 -0.0228 -0.3094
    1W        W50032  22.338   5.503   3.841  0.3197 -0.0386 -0.0286
    1W        W50033   0.805   0.282   1.637  0.3710  0.1149 -0.0367
    1W        W50034   2.506  19.017   1.782 -0.2791 -0.0852 -0.0208
    1W        W50035   9.885  16.745   1.943 -0.0613 -0.0995  0.1022
    1W        W50036  22.475   6.496   3.925 -0.3662 -0.3641  0.0187
    1W        W50037  20.078   6.870   1.893 -0.3493  0.0220 -0.1806
    1W        W50038  28.348  27.595   8.196  0.1427 -0.0754 -0.1481
    1W        W50039   9.817  14.498   0.499  0.3160  0.2654 -0.1113
    1W        W50040  15.385  18.125   8.169 -0.2569 -0.1673 -0.1221
    1W        W50041   0.119  13.040   9.194  0.1791  0.2177 -0.1758
    1W        W50042   1.118  16.877   9.255  0.0425 -0.1709 -0.2082
    1W        W50043  23.840   7.516   1.528  0.4195  0.2873  0.1009
    1W        W50044   7.441   8.922   3.556  0.1012  0.2367 -0.2334
    1W        W50045  12.498   4.929   8.198 -0.1465 -0.0273 -0.1853
    1W        W50046  16.903  17.671   8.891  0.1349 -0.0519  0.0253
    1W        W50047  27.483   5.567   7.732 -0.1642  0.0109 -0.3187
    1W        W50048  22.127  27.673   0.114 -0.3145  0.1750  0.2673
    1W        W50049   1.168   9.226   0.033 -0.2905  0.1263 -0.2075
    1W        W50050  28.932  23.104   7.039  0.0630  0.3165  0.2525
    1W        W50051   9.053   3.933   1.699  0.0411 -0.1540  0.1523
    1W        W50052  13.720  19.319   7.214 -0.2469 -0.3057 -0.0787
    1W        W50053  27.186  26.731   0.946 -0.1386  0.1551  0.1609
    1W        W50054   6.374   6.836   1.018  0.5411  0.0838  0.3430
    1W        W50055  15.936  15.219   7.176 -0.0966  0.3412  0.0304
    1W        W50056   5.341  28.731   1.976  0.2487 -0.0541 -0.1940
    1W        W50057  23.122  13.260   0.351 -0.3715 -0.0192  0.2168
    1W        W50058  26.518  18.524   1.389  0.1841 -0.1599  0.2619
    1W        W50059  11.089  13.194   8.479 -0.0560  0.2179 -0.1212
    1W        W50060   4.729   8.307   9.029  0.0281 -0.0756  0.1273
    1W        W50061   3.394  17.837   9.079  0.0732  0.1818  0.1802
    1W        W50062  25.682   9.282   2.260 -0.2690  0.1174  0.2206
    1W        W50063  26.173  29.711   0.357  0.0299 -0.2674 -0.3712
    1W        W50064   5.447  21.665   7.267  0.0076 -0.0586 -0.0660
    1W        W50065   1.838  16.869   1.520  0.1343  0.3962  0.0268
    1W        W50066  27.103  24.685   7.624  0.0431  0.2990  0.1523
    1W        W50067  22.556  29.008   9.079  0.0397 -0.0283  0.1515
    1W        W50068  12.622   3.130   7.377  0.2785  0.3320  0.0691
    1W        W50069  14.851  11.563   8.720 -0.0817 -0.3721 -0.2173
    1W        W50070  21.117  21.972   8.376 -0.1445  0.0363 -0.1174
    1W        W50071  17.119   2.141   8.572  0.1293 -0.1928  0.1695
    1W        W50072   5.369   5.238   8.521  0.0644 -0.0457  0.1084
    1W        W50073  18.076  21.215   7.403  0.0533 -0.0001 -0.2546
    1W        W50074   8.292  19.283   9.401 -0.0926  0.1538 -0.1721
    1W        W50075   1.184  27.081   7.481  0.2243  0.0531  0.3450
    1W        W50076   8.346   6.629   7.354  0.1781 -0.0533  0.1444
    1W        W50077  26.409  27.478   6.810 -0.2597  0.1208 -0.0721
    1W        W50078  19.245  23.218   6.695 -0.0998 -0.0480 -0.0226
    1W        W50079   4.814  14.769   2.378 -0.0816 -0.1226  0.1091
    1W        W50080  11.155   8.416   1.757  0.0858 -0.2276  0.0123
    1W        W50081  29.824  17.360   1.674 -0.2485 -0.1775  0.1271
    1W        W50082  14.160   7.666   2.773 -0.0687 -0.2113 -0.3030
    1W        W50083  11.120  23.626   7.589 -0.3290  0.3971 -0.0219
    1W        W50084  22.653   6.844   1.978 -0.3718 -0.1253  0.2292
    1W        W50085   3.080   3.238   1.962  0.1757  0.1178 -0.0072
    1W        W50086  18.077   8.928   7.988  0.1802  0.2548  0.1789
    1W        W50087  28.436  18.275   0.967 -0.0313  0.1029 -0.1519
    1W        W50088   9.647   6.518   7.430 -0.1124 -0.1936 -0.0622
    1W        W50089   6.774  21.788   1.257  0.0923  0.0630  0.1146
    1W        W50090  12.992  16.800   0.331  0.4301  0.0195 -0.2745
    1W        W50091  13.955  11.321   8.166 -0.0962 -0.0444 -0.0284
    1W        W50092   0.793  18.972   0.408 -0.1270  0.0076  0.0075
    1W        W50093  23.330  10.625   8.091 -0.0245 -0.0960  0.6421
    1W        W50094  28.837   9.091   1.806 -0.1117 -0.0262 -0.0286
    1W        W50095  17.651  21.645   8.321 -0.0007 -0.1807  0.1082
    1W        W50096  22.619  28.273   2.925  0.0524  0.0540  0.0750
    1W        W50097   0.137  26.853   7.685  0.1096  0.0134  0.3573
    1W        W50098  20.573  14.574   0.025  0.0582 -0.0036  0.1303
    1W        W50099  22.516  27.261   1.351  0.2933  0.0676  0.2556
    1W        W50100   5.621   7.508   1.130 -0.1458  0.2167  0.1436
    1W        W50101  17.127   8.397   8.228 -0.0687 -0.1706 -0.0776
    1W        W50102  21.001  24.249   2.287  0.0662 -0.1079  0.1902
    1W        W50103  14.941   9.734   1.494 -0.0447 -0.0474 -0.0390
    1W        W50104  11.294  20.708   9.420  0.1895 -0.2209 -0.1452
    1W        W50105  10.827   1.832   8.422  0.1193 -0.1233  0.1258
    1W        W50106  16.289  19.779   2.087  0.3199 -0.0736 -0.0867
    1W        W50107  19.430   9.715   7.774  0.2588  0.0334  0.2562
    1W        W50108  25.967   8.030   1.887 -0.2823 -0.0313 -0.1522
    1W        W50109  20.322  19.797   7.201 -0.0674  0.1033 -0.1592
    1W        W50110   4.845  18.576   2.573 -0.0723 -0.3850 -0.2065
    1W        W50111  14.503  14.081   0.441 -0.0021  0.1777  0.0545
    1W        W50112  24.034   0.831   3.234 -0.0035  0.0878  0.1839
    1W        W50113   4.771   6.228   2.694  0.0067  0.1768 -0.0208
    1W        W50114  23.301  19.402   2.270  0.1696  0.0631 -0.0227
    1W        W50115  10.665  16.279   1.748  0.3470 -0.1915 -0.2489
    1W        W50116  21.569   7.133   2.289  0.0575  0.1026 -0.0245
    1W        W50117  23.855  24.075   9.041 -0.1720 -0.0144 -0.0559
    1W        W50118  11.424  21.943   7.170 -0.0449 -0.3554  0.1251
    1W        W50119  26.152   7.442   2.771 -0.0844  0.0899 -0.0894
    1W        W50120  27.781   4.806   7.265  0.1714 -0.1091 -0.0179
    1W        W50121  11.008  19.290   0.911 -0.4128 -0.1850 -0.1608
    1W        W50122  28.416  11.398   0.201  0.0337  0.1558 -0.1441
    1W        W50123  19.776   7.485   0.376 -0.0249 -0.2282  0.3179
    1W        W50124   5.549   7.063   6.297  0.2544  0.0145 -0.1935
    1W        W50125   5.403  24.564   8.430 -0.0339 -0.1236 -0.1369
    1W        W50126  23.035  13.781   0.278  0.1108  0.0754 -0.2312
    1W        W50127  19.615   0.130   1.808  0.2541  0.0265 -0.0479
    1W        W50128   5.352  22.684   7.043  0.1822 -0.2200 -0.0118
    1W        W50129   3.037  24.164   1.846 -0.2738  0.2347 -0.2413
    1W        W50130  22.187  15.141   9.519 -0.0812 -0.2681  0.0716
    1W        W50131   1.384  13.139   1.660 -0.0210  0.1766 -0.1182
    1W        W50132   0.511   4.666   1.232  0.0443 -0.1829  0.3463
    1W        W50133   5.249   4.263   1.879  0.0378 -0.3292  0.0238
    1W        W50134  19.363  27.720   6.835  0.0987 -0.2146 -0.0750
    1W        W50135  29.807  15.284   0.637 -0.0768 -0.1734  0.1441
    1W        W50136  28.104  20.900   8.885  0.0335 -0.1971 -0.0466
    1W        W50137  22.810  23.426   1.008 -0.0109 -0.0870 -0.1105
    1W        W50138  18.157  11.297   6.894  0.1206 -0.0958  0.0223
    1W        W50139  26.249  29.437   0.971  0.1342 -0.0549 -0.0011
    1W        W50140   0.111   8.196   7.917 -0.0231  0.0617  0.2860
    1W        W50141  20.835   3.217   0.961 -0.0421  0.0320  0.3629
    1W        W50142   6.848  14.748   1.509 -0.0341 -0.0254 -0.4071
    1W        W50143  20.917  19.257   9.265 -0.1253  0.0696 -0.2589
    1W        W50144  15.253   1.600   1.647 -0.1231  0.1038  0.0901
    1W        W50145  12.807  10.140   2.121  0.1200 -0.3604  0.2327
    1W        W50146   2.603  22.827   0.247 -0.3483  0.0331 -0.0904
    1W        W50147  18.730   4.585   9.452 -0.0156  0.1123 -0.1403
    1W        W50148  27.745  24.961   9.443  0.0474 -0.0155 -0.2382
    1W        W50149  20.712  23.209   8.088  0.1142  0.1232 -0.1831
    1W        W50150   8.838  24.313   7.907 -0.1287 -0.2726 -0.1882
    1W        W50151   2.992   1.169   0.121 -0.0485  0.0734  0.2353
    1W        W50152  23.205   0.980   3.562 -0.2514 -0.1294  0.1869
    1W        W50153  16.938   8.984   9.008  0.1570  0.0479  0.1941
    1W        W50154  14.484  22.675   8.953 -0.0258  0.0989  0.0233
    1W        W50155  23.093  12.369   1.799 -0.0751 -0.2904 -0.0432
    1W        W50156  28.203   6.816   0.418  0.2032 -0.2142  0.0150
    1W        W50157   9.271   0.401   3.282  0.0845 -0.0103 -0.2343
    1W        W50158   5.023  10.126   1.331 -0.0333 -0.0340  0.2331
    1W        W50159  23.191   8.505   8.581  0.0638 -0.2510 -0.2989
    1W        W50160  27.850  13.180   6.928  0.0433 -0.0718  0.4017
    1W        W50161  12.682  27.518   1.069  0.0371  0.2564  0.0954
    1W        W50162  28.080  19.909   2.119  0.2400  0.0975  0.3737
    1W        W50163  25.570   6.124   1.782  0.1653  0.0044  0.2076
    1W        W50164  14.455   2.088   9.185 -0.0011 -0.0641  0.3166
    1W        W50165  17.687  25.706   9.184  0.0297 -0.2467  0.1398
    1W        W50166  16.084   1.276   3.854  0.0528  0.1396 -0.1748
    1W        W50167  24.130   9.275   7.970 -0.2116  0.0009  0.0626
    1W        W50168   9.665  26.044   7.647 -0.3640  0.1024  0.1559
    1W        W50169   3.014  13.349   8.255  0.2995  0.3721  0.0616
    1W        W50170  25.150  15.063   9.177 -0.1050  0.4570  0.0906
    1W        W50171   8.935   5.031   0.295 -0.4435 -0.4668 -0.2329
    1W        W50172   2.878  28.986   1.936  0.1515 -0.1130 -0.1914
    1W        W50173   4.604  15.909   7.519 -0.2041  0.0696  0.0029
    1W        W50174   1.421   2.748   1.256 -0.0693 -0.3553  0.0060
    1W        W50175   7.253  13.027   6.358 -0.0563  0.4393  0.1027
    1W        W50176   2.905  24.824   8.039 -0.0154 -0.2982 -0.0910
    1W        W50177  26.351  20.961   8.807 -0.0586  0.2638 -0.1670
    1W        W50178   2.522  27.499   0.103 -0.2123  0.1617 -0.0666
    1W        W50179  11.536   0.051   9.131  0.0696  0.2978 -0.2533
    1W        W50180  29.197  11.472   7.876  0.0413 -0.2954  0.4185
    1W        W50181  14.445  19.765   7.414  0.1694  0.2950  0.0651
    1W        W50182  29.004   8.170   7.921 -0.1172 -0.0252 -0.0539
    1W        W50183   4.292   0.441   6.375 -0.1368  0.1048 -0.5488
    1W        W50184   5.351   9.776   7.845  0.0736  0.1409  0.0678
    1W        W50185   1.459  25.084   7.833 -0.0308 -0.1007  0.0835
    1W        W50186  21.407  24.113   0.865 -0.0688 -0.3003 -0.0551
    1W        W50187  11.248  23.755   9.173  0.2314  0.3466 -0.0891
    1W        W50188  16.977   1.246   3.232 -0.1989 -0.0655  0.0443
    1W        W50189  12.532   0.238   8.550  0.1995  0.0800 -0.3512
    1W        W50190   6.726  17.256   8.779 -0.1175 -0.3678  0.1104
    1W        W50191   9.476  21.017   2.465  0.1759  0.0202 -0.0611
    1W        W50192  12.715  21.078   5.856  0.1321  0.3802  0.0750
    1W        W50193  16.622  26.064   8.260 -0.0635  0.0875 -0.0298
    1W        W50194  23.449  23.033   8.592  0.0017  0.2558 -0.0765
    1W        W50195   0.386   9.466   8.843  0.0570 -0.2732  0.0163
    1W        W50196  17.531  24.057   0.164 -0.0615  0.0405 -0.0705
    1W        W50197  15.680  12.452   0.978  0.3052  0.0426 -0.0067
    1W        W50198   7.028   7.714   8.600  0.0184 -0.1952  0.1038
    1W        W50199  15.790   2.682   0.930  0.1320  0.2346  0.1124
    1W        W50200  14.148  28.289   2.472  0.0063  0.2147  0.1819
    1W        W50201  13.534   9.009   9.186  0.0973  0.1021  0.1390
    1W        W50202  12.388   2.115   8.459 -0.3243 -0.1139  0.0529
    1W        W50203  13.988  23.132   5.631  0.0872 -0.1994  0.2305
    1W        W50204  23.579  27.956   0.569 -0.2242 -0.0058  0.1949
    1W        W50205  28.194  25.919   1.415  0.0180 -0.0346  0.4429
    1W        W50206  28.390  15.749   8.135  0.4086 -0.1005  0.1131
    1W        W50207  25.466  23.913   7.446 -0.0122  0.1863 -0.1670
    1W        W50208  19.779  23.785   8.669 -0.0057 -0.0607  0.3244
    1W        W50209  26.194   1.499   0.919  0.2594  0.3649  0.0470
    1W        W50210  20.681  26.731   9.104  0.0717 -0.1687 -0.1258
    1W        W50211  22.212  13.750   0.017  0.2070  0.1256  0.2870
    1W        W50212  11.251   8.571   1.233  0.2188 -0.1625 -0.2114
    1W        W50213  12.764   7.107   8.784  0.1834  0.2320 -0.1657
    1W        W50214  26.007  23.138   7.777 -0.0167  0.3219  0.4618
    1W        W50215   0.335  22.604   7.780  0.1785 -0.1874  0.3687
    1W        W50216  15.109   2.535   8.000 -0.1488 -0.1212  0.0313
    1W        W50217   7.834  28.320   8.341  0.2940  0.1010 -0.4383
    1W        W50218  26.477  20.889   1.681 -0.2262  0.0183  0.1794
    1W        W50219  28.735   5.081   2.035 -0.2611  0.1774 -0.2189
    1W        W50220  18.288   2.909   3.055  0.0162 -0.2248 -0.1037
    1W        W50221  23.662  20.184   1.760 -0.0206  0.3766 -0.0277
    1W        W50222   6.889   4.439   8.511 -0.1508 -0.0151 -0.2488
    1W        W50223   1.959   5.564   0.434  0.2562 -0.1065  0.3339
    1W        W50224   9.609  17.739   6.351 -0.0853  0.0482  0.0445
    1W        W50225  10.737   2.998   2.334 -0.1175  0.2255  0.0612
    1W        W50226   9.677   6.232   1.445  0.3392  0.3210  0.0380
    1W        W50227   6.974  12.176   9.333  0.1932 -0.1063  0.1319
    1W        W50228   9.128  27.892   1.567 -0.1887 -0.2475  0.1180
    1W        W50229   7.592  19.793   7.875 -0.1451 -0.2296  0.2153
    1W        W50230  22.416  12.514   2.092 -0.1299 -0.1396  0.1965
    1W        W50231  22.607  29.153   7.027  0.0154 -0.0219 -0.0381
    1W        W50232   3.545   6.096   1.567  0.0272  0.0948 -0.0779
    1W        W50233  29.339  26.278   1.216  0.1060  0.0620 -0.1186
    1W        W50234  18.504  10.147   0.843  0.0049  0.1038 -0.1411
    1W        W50235  10.985   5.514   2.550  0.0143 -0.2288 -0.1133
    1W        W50236  10.358  15.582   7.821 -0.0288 -0.0475  0.1202
    1W        W50237   3.203  13.006   6.966 -0.0697  0.1019 -0.2260
    1W        W50238  14.533  18.910   0.180 -0.0295  0.0007  0.0860
    1W        W50239   2.014  23.485   1.201 -0.1234  0.0816 -0.2618
    1W        W50240  24.735  11.133   7.148 -0.1053 -0.3978 -0.3146
    1W        W50241  16.974  23.788   7.004 -0.0038  0.2600 -0.2992
    1W        W50242  25.940  25.304   6.490  0.1278  0.2220  0.2037
    1W        W50243   5.198  19.242   2.101 -0.1504 -0.1248  0.0961
    1W        W50244  25.728  12.595   1.138 -0.0377 -0.4592  0.2338
    1W        W50245  24.159  12.290   8.408 -0.2368 -0.0494  0.0578
    1W        W50246  26.725  20.770   6.946  0.0623 -0.0472 -0.1774
    1W        W50247  11.440  26.296   7.465  0.0323 -0.1610  0.1228
    1W        W50248  22.487  24.042   8.629  0.2013  0.1324  0.0832
    1W        W50249  19.678   5.251   2.782  0.1593 -0.2596  0.3999
    1W        W50250  15.685   3.679   2.112  0.1369 -0.4167  0.1403
    1W        W50251  23.750  20.957   1.399 -0.2714 -0.0519  0.2569
    1W        W50252  24.314  21.327   6.979  0.1402 -0.1981 -0.2713
    1W        W50253   6.156   1.187   8.016 -0.0039 -0.2339  0.2148
    1W        W50254   0.499  22.490   2.068 -0.2299  0.2074 -0.1198
    1W        W50255  24.236  15.751   0.277  0.2743  0.1149  0.0171
    1W        W50256  29.281  24.793   8.015 -0.0135 -0.2075 -0.0341
    1W        W50257  26.991   2.334   3.073  0.1651  0.0032 -0.0560
    1W        W50258   7.523  27.390   0.990 -0.2350 -0.0114  0.0407
    1W        W50259   1.642  15.705   6.888 -0.0111  0.2750 -0.1858
    1W        W50260   0.679  20.635   0.194 -0.0160  0.0017 -0.1157
    1W        W50261  10.660   0.408   3.163  0.1319  0.0119  0.2307
    1W        W50262  20.109  13.266   8.337  0.1384  0.0762  0.0600
    1W        W50263  17.739  28.111   0.799  0.4090  0.0175  0.1112
    1W        W50264  25.341  19.367   0.656 -0.0467 -0.1564 -0.0084
    1W        W50265  10.181  13.971   1.408 -0.2062  0.1166  0.3368
    1W        W50266   9.263   1.657   1.062 -0.0443 -0.2677 -0.1281
    1W        W50267  18.772  25.664   7.331 -0.0533  0.0491  0.0419
    1W        W50268   1.388   4.874   6.716  0.2052  0.0553 -0.0223
    1W        W50269   4.164   5.016   6.915  0.0267  0.2529 -0.0690
    1W        W50270   7.224  27.688   1.297 -0.2473 -0.2894  0.0496
    1W        W50271  22.252  14.531   7.581 -0.4156 -0.1577  0.0360
    1W        W50272   3.595  22.630   8.877 -0.2981 -0.4119  0.2475
    1W        W50273  19.952   7.713   0.793  0.3938  0.1799 -0.0288
    1W        W50274   0.834  17.363   8.748 -0.0678  0.0989 -0.3764
    1W        W50275  14.780   0.208   1.401 -0.3745  0.1700  0.0640
    1W        W50276  29.647  27.271   6.693 -0.0373  0.5191  0.4041
    1W        W50277  10.070  21.637   8.519  0.1544  0.1052  0.1786
    1W        W50278  19.940  22.208   8.327 -0.0090  0.0613  0.4623
    1W        W50279   9.943  19.493   7.193  0.0172 -0.0878 -0.0642
    1W        W50280  25.098  28.322   7.634 -0.0633  0.1059 -0.2088
    1W        W50281  23.680  14.589   9.165 -0.0712 -0.3985 -0.0280
    1W        W50282  10.711  12.789   0.671  0.0487  0.0289  0.0381
    1W        W50283   6.566  13.746   1.012  0.1455 -0.1607 -0.1457
    1W        W50284  17.714  11.404   8.400  0.0528  0.0696  0.3772
    1W        W50285  13.555  20.467   6.730 -0.1256 -0.1390  0.2654
    1W        W50286  17.483  18.318   6.435 -0.1093 -0.0343  0.2752
    1W        W50287   7.098  28.319   8.488  0.1785 -0.1298 -0.1411
    1W        W50288   1.429  12.679   8.079  0.1372 -0.0673 -0.0364
    1W        W50289   0.411   8.338   8.422  0.0206  0.1400  0.0212
    1W        W50290  29.463  14.007   0.935  0.0552  0.1378  0.0079
    1W        W50291  15.382  22.480   0.214 -0.1410 -0.1303  0.0925
    1W        W50292   0.890  13.981   1.041 -0.0608  0.1840 -0.3027
    1W        W50293  25.026  24.321   8.295 -0.0851 -0.0027 -0.1613
    1W        W50294   7.452  25.717   0.872 -0.0088 -0.2166 -0.1750
    1W        W50295  24.127  15.370   1.146 -0.0129 -0.1415 -0.2136
    1W        W50296   4.460   3.259   7.529  0.1231  0.0289  0.0853
    1W        W50297   0.445  26.632   9.425  0.0999 -0.2833  0.1294
    1W        W50298  19.031  25.381   1.660 -0.1635 -0.1509  0.0156
    1W        W50299  19.889   3.784   2.738  0.0014  0.0402 -0.0528
    1W        W50300  16.808  20.144   8.525  0.0024 -0.0045 -0.1378
    1W        W50301  10.593  28.607   1.682 -0.2139 -0.1857 -0.0962
    1W        W50302  10.374  25.978   5.934 -0.5080 -0.3307  0.1383
    1W        W50303  23.243  21.968   7.980 -0.0499 -0.2309  0.0364
    1W        W50304  11.148   2.619   3.186 -0.0759 -0.0160  0.0295
    1W        W50305  26.773  14.370   1.900 -0.0859  0.2031 -0.0952
    1W        W50306  11.813  29.075   9.378  0.0524  0.0477  0.2026
    1W        W50307   2.593   7.430   9.358  0.3140  0.2170 -0.2021
    1W        W50308  23.140  17.967   7.004 -0.0778 -0.2564 -0.1563
    1W        W50309  16.746   0.763   3.235 -0.0010  0.2138 -0.1661
    1W        W50310  19.781   0.709   8.587 -0.3934  0.0435 -0.1937
    1W        W50311   1.897  21.637   1.823  0.0635 -0.2525 -0.1626
    1W        W50312  13.801  13.495   0.073  0.3020 -0.0874 -0.4251
    1W        W50313  16.621  22.925   8.185  0.1009 -0.2926 -0.0467
    1W        W50314  23.322  20.887   9.326 -0.1414  0.0445  0.0850
    1W        W50315  20.568  20.902   1.239 -0.3104  0.1346 -0.0163
    1W        W50316  16.360  27.563   7.582  0.1000  0.1291  0.2762
    1W        W50317  23.768   8.099   9.220 -0.0793 -0.0163 -0.1571
    1W        W50318  16.331  24.568   5.229  0.1709 -0.2143 -0.2283
    1W        W50319  13.654   0.781   0.976  0.1104  0.2363 -0.0201
    1W        W50320  28.896  21.390   5.936  0.0239 -0.1223 -0.1109
    1W        W50321  10.134  11.755   0.150 -0.2791  0.1990 -0.0816
    1W        W50322  29.706   8.579   1.526  0.1491 -0.1053 -0.0521
    1W        W50323   2.841  21.945   7.019 -0.3628  0.1911 -0.0464
    1W        W50324  19.620  13.391   2.745  0.2365 -0.0122  0.4769
    1W        W50325  14.949   6.394   3.515  0.0883 -0.1354  0.0941
    1W        W50326   2.825   1.598   6.266  0.0226 -0.1450 -0.0636
    1W        W50327  24.158   0.530   9.183  0.0120 -0.4073  0.1933
    1W        W50328  28.904  26.826   0.128 -0.3928  0.0638  0.3264
    1W        W50329   4.482  12.951   8.884 -0.1580 -0.0445  0.2303
    1W        W50330  27.800  21.271   6.049 -0.1853  0.4259  0.0338
    1W        W50331  25.169  26.047   0.227 -0.2739 -0.1675  0.1393
    1W        W50332  26.531   2.141   9.046  0.0390  0.0625 -0.0411
    1W        W50333   9.659  24.870   5.939 -0.4745 -0.0718  0.0818
    1W        W50334  18.227   7.407   2.617  0.0085  0.1991 -0.0571
    1W        W50335  17.065  27.297   8.107 -0.1152 -0.1510 -0.1795
    1W        W50336   4.976  25.835   6.516 -0.1177 -0.1014 -0.1189
    1W        W50337  12.815   1.404   7.595 -0.3625  0.4920  0.0407
    1W        W50338  17.735  27.431   0.759  0.0160  0.2913  0.1727
    1W        W50339  10.403  19.776   7.300 -0.0992 -0.0879 -0.1058
    1W        W50340   6.408  11.065   0.428 -0.0148 -0.0515  0.1783
    1W        W50341  26.584  28.916   7.813  0.1831  0.0992 -0.7786
    1W        W50342  28.472  24.223   8.071  0.1865 -0.1587 -0.3749
    1W        W50343  26.247   9.236   1.528  0.1625  0.0108 -0.2493
    1W        W50344  16.499  24.215   7.665  0.1094  0.0849  0.5308
    1W        W50345  12.698   6.837   7.850  0.3922  0.1718 -0.0352
    1W        W50346  28.589   9.259   9.502  0.0585  0.0765 -0.0299
    1W        W50347   0.045  17.755   1.142 -0.0463  0.2604  0.1135
    1W        W50348  15.412   6.099   0.426  0.3461 -0.0574 -0.1039
    1W        W50349  29.449  10.726   7.274  0.0612  0.0971 -0.0561
    1W        W50350   4.173  12.634   8.528 -0.1793  0.0579  0.0385
    1W        W50351  19.866  28.627   9.483  0.0425 -0.1320  0.2116
    1W        W50352  25.189   3.854   8.438 -0.2207  0.0791 -0.1360
    1W        W50353  17.085  17.798   7.407  0.1950  0.3037 -0.0443
    1W        W50354  10.473  15.915   0.728 -0.0377  0.0179 -0.0240
    1W        W50355  28.819  24.505   2.136 -0.1332 -0.0957 -0.0334
    1W        W50356  18.446  11.291   9.320  0.0456  0.1678 -0.2420
    1W        W50357   7.936  23.166   8.786  0.0286  0.0694 -0.1611
    1W        W50358  25.746   4.951   7.662  0.0237  0.0409 -0.1181
    1W        W50359   1.763  14.441   0.726 -0.0602 -0.1724  0.0223
    1W        W50360   3.488  18.730   7.106 -0.0968 -0.0578 -0.0700
    1W        W50361  11.455   8.375   2.322  0.0046 -0.1159 -0.0941
    1W        W50362   3.947  12.832   6.631 -0.0572  0.0641  0.0740
    1W        W50363  17.439   5.983   1.929  0.0212  0.1435  0.1145
    1W        W50364   6.046  24.472   0.562  0.0712  0.0734  0.3257
    1W        W50365   5.691   2.685   8.307  0.0156  0.0271 -0.0646
    1W        W50366  17.916  23.444   0.474  0.2807  0.0248  0.1436
    1W        W50367  26.944  25.478   8.591 -0.1252  0.0441  0.1279
    1W        W50368  14.625  20.515   5.752 -0.1466  0.2067 -0.0024
    1W        W50369  21.245  19.520   6.380 -0.2971 -0.2390 -0.0019
    1W        W50370  28.768  19.369   8.305 -0.0978 -0.0310 -0.0346
    1W        W50371  11.535  10.374   2.039  0.2936 -0.2477  0.0743
    1W        W50372   1.793  25.372   0.706 -0.1271  0.1330 -0.1842
    1W        W50373  21.748   1.832   1.033 -0.0205  0.1517 -0.0292
    1W        W50374  21.339  18.489   8.182 -0.2526 -0.3356  0.1187
    1W        W50375  28.012  28.328   0.704  0.0872  0.0794  0.0395
    1W        W50376  24.638   6.747   2.557  0.2007 -0.0922 -0.3434
    1W        W50377   7.773  19.520   8.282 -0.3333  0.0231 -0.0818
    1W        W50378  23.564   6.371   7.820  0.0009 -0.0538 -0.0432
    1W        W50379  17.006   4.261   8.717 -0.0245 -0.4592  0.1333
    1W        W50380   8.261   0.870   6.434 -0.2144  0.0925  0.3468
    1W        W50381   6.484   8.245   0.804  0.0628  0.0935  0.1170
    1W        W50382  20.993   0.699   0.495  0.0460  0.1717 -0.0566
    1W        W50383  10.862  14.789   5.953 -0.1640  0.1546 -0.2706
    1W        W50384   7.521  21.717   1.840 -0.6482  0.3259  0.1521
    1W        W50385   8.977  21.533   8.817 -0.0605 -0.0405 -0.3264
    1W        W50386  11.747   0.477   2.572 -0.0181  0.1526 -0.0441
    1W        W50387   9.891  16.197   0.107  0.0207  0.0893 -0.1777
    1W        W50388  13.205   8.049   1.057 -0.2345  0.1149 -0.0837
    1W        W50389   7.778  19.919   0.136 -0.1026  0.0533  0.3570
    1W        W50390  19.524   2.009   0.564  0.1414  0.1936 -0.1992
    1W        W50391  17.012  22.914   6.386  0.2443 -0.2304  0.2394
    1W        W50392  23.484  12.795   8.237  0.2761  0.0280  0.2845
    1W        W50393  19.969  19.240   1.270  0.0528 -0.1321 -0.2018
    1W        W50394  20.514   3.475   2.526 -0.1150  0.3526 -0.1023
    1W        W50395   5.182  26.628   0.326 -0.0759 -0.3225 -0.0214
    1W        W50396  17.955  29.463   1.281  0.2388  0.0479  0.0463
    1W        W50397   6.164  20.984   0.154  0.1317  0.2839 -0.0225
    1W        W50398  19.553   3.066   9.311 -0.1229 -0.0538 -0.0445
    1W        W50399  19.629  13.037   8.443 -0.2370  0.1102  0.1934
    1W        W50400  20.685   4.891   8.511  0.1929  0.3441  0.0362
    1W        W50401  24.459  13.215   0.422 -0.1694 -0.0620 -0.2548
    1W        W50402  22.425  23.990   9.118  0.0634 -0.0526 -0.4145
    1W        W50403  19.751   4.490   3.363  0.0235 -0.0147 -0.0600
    1W        W50404  24.071   6.182   3.015 -0.1228  0.0354 -0.1070
    1W        W50405   6.096   7.188   6.401 -0.1465 -0.1252 -0.0509
    1W        W50406  14.721  27.723   1.385 -0.0068  0.0489  0.3847
    1W        W50407   5.486  21.589   2.055 -0.0500  0.1642  0.0232
    1W        W50408  26.754   5.973   8.012 -0.1343 -0.0551  0.1969
    1W        W50409  17.349  17.860   6.583 -0.0453  0.0980  0.0339
    1W        W50410   5.026  13.463   7.636  0.2124  0.0516 -0.0459
    1W        W50411  25.117  25.580   1.986 -0.0124  0.0729  0.1397
    1W        W50412  21.220  17.008   6.462  0.0581 -0.1041  0.1710
    1W        W50413  11.063  13.141   0.759  0.1094 -0.3349  0.0983
    1W        W50414  23.651  16.968   9.111  0.3177 -0.2492 -0.0733
    1W        W50415  22.335  23.580   8.315  0.1920 -0.1094  0.2289
    1W        W50416  17.283  17.366   8.776  0.0898 -0.0681 -0.1567
    1W        W50417   1.853   8.108   7.267  0.2452  0.0465 -0.3816
    1W        W50418   4.215  22.788   7.054 -0.2235 -0.0701  0.0225
    1W        W50419   1.354  12.032   7.087  0.0791 -0.0702  0.0687
    1W        W50420  15.012  28.546   8.028 -0.1263  0.6951 -0.1900
    1W        W50421   2.412   2.721   6.977 -0.1486  0.2589 -0.2398
    1W        W50422   7.086  20.351   6.544  0.2610 -0.0355  0.0686
    1W        W50423   7.969  29.108   9.290 -0.1054  0.0670  0.3030
    1W        W50424  27.383  16.179   1.779  0.2566 -0.0861 -0.2312
    1W        W50425  19.632  17.658   6.253  0.0997  0.0394 -0.4399
    1W        W50426  17.757  28.622   8.117 -0.1694 -0.1669  0.1642
    1W        W50427   8.711  25.727   8.286  0.1568 -0.0006  0.1804
    1W        W50428  20.736  10.841   0.350 -0.1309  0.1358 -0.0291
    1W        W50429  21.194  19.775   9.058 -0.0714 -0.1482 -0.1316
    1W        W50430  28.814  16.568   1.592 -0.3288 -0.2440  0.0700
    1W        W50431  15.686  18.666   6.888  0.2578 -0.2180 -0.1338
    1W        W50432   6.649   0.869   7.272 -0.0012  0.3566  0.2208
    1W        W50433   3.331   2.839   3.000  0.1936 -0.0638  0.0925
    1W        W50434  28.347   4.815   2.346 -0.2823  0.0044 -0.0966
    1W        W50435  26.275   7.090   7.291 -0.0371  0.3510 -0.1484
    1W        W50436   3.823  11.267   7.025 -0.0059  0.0654 -0.0056
    1W        W50437  25.642   3.166   7.782 -0.1246 -0.3433  0.2142
    1W        W50438   0.215  21.041   7.372  0.0464  0.0711  0.1650
    1W        W50439   1.313   9.598   9.200  0.1814  0.0894 -0.1903
    1W        W50440   8.598   1.030   3.584 -0.0321 -0.0088 -0.0184
    1W        W50441   1.187  26.583   6.541 -0.1675 -0.0954  0.1463
    1W        W50442   4.882   1.071   8.447  0.1136  0.2994 -0.0643
    1W        W50443   1.164  24.522   1.233 -0.0813  0.1573  0.2792
    1W        W50444   4.029   1.859   7.357 -0.0174  0.2501  0.1927
    1W        W50445  24.426   3.935   8.943  0.1258 -0.0277 -0.1873
    1W        W50446  23.688   0.218   8.105  0.1295  0.0572 -0.2117
    1W        W50447   8.638  10.152   8.323  0.2892  0.2925 -0.3056
    1W        W50448  13.511   5.491   1.457  0.0429 -0.0643  0.0454
    1W        W50449  15.349  17.289   1.617 -0.1004  0.2186  0.0807
    1W        W50450  19.459  27.050   7.879  0.0744 -0.0564 -0.0220
    1W        W50451  28.431  27.086   0.025  0.3448 -0.0744 -0.0379
    1W        W50452  14.722   1.905   3.703  0.4407  0.3011 -0.1312
    1W        W50453  11.841  15.026   1.800 -0.0382  0.2101 -0.0912
    1W        W50454  26.946  29.249   0.517 -0.1365 -0.0649 -0.0276
    1W        W50455  24.002  18.354   7.892 -0.1198 -0.1876 -0.1224
    1W        W50456   0.685   6.668   8.537 -0.0877  0.2234  0.3363
    1W        W50457  14.006  17.755   8.402 -0.0034  0.2743 -0.0486
    1W        W50458  27.118   4.516   2.620 -0.0129  0.2236  0.1179
    1W        W50459  21.733   1.752   8.092  0.0116 -0.1217 -0.0213
    1W        W50460  24.732   2.230   0.274 -0.0353 -0.2157  0.1624
    1W        W50461  22.202  12.606   7.626  0.0155 -0.1509  0.0586
    1W        W50462  17.417  18.357   9.456 -0.0125 -0.1303  0.0245
    1W        W50463  12.576   9.780   0.154  0.0406 -0.3454  0.0449
    1W        W50464  22.381  20.882   1.414  0.0587 -0.0480 -0.2668
    1W        W50465  20.196  19.452   0.812 -0.1130 -0.0722  0.1133
    1W        W50466   8.032   9.021   0.590  0.1276 -0.2290  0.1709
    1W        W50467  24.049  21.336   7.961  0.0961 -0.1377 -0.4537
    1W        W50468  24.406  26.061   1.704 -0.1920  0.0941 -0.0472
    1W        W50469  15.124   2.133   3.512  0.2847 -0.1304  0.1731
    1W        W50470  24.393  17.628   9.410  0.0381  0.1043  0.0163
    1W        W50471  26.807  23.130   2.797 -0.0808 -0.0635 -0.1142
    1W        W50472  12.223  16.188   8.745 -0.2782  0.2238  0.0055
    1W        W50473  26.163  11.655   2.109 -0.1155  0.0381  0.4813
    1W        W50474   6.930  14.146   5.687  0.1429  0.2451  0.1260
    1W        W50475   1.490  26.401   8.934  0.0624 -0.2505 -0.1011
    1W        W50476  18.046  24.709   0.557 -0.0781  0.1638  0.0191
    1W        W50477  16.217  17.640   2.160  0.1747 -0.1874 -0.0480
    1W        W50478   5.094  17.801   1.311  0.1826 -0.2317 -0.0601
    1W        W50479  14.446  22.884   6.706 -0.3566  0.0413 -0.1520
    1W        W50480   8.842  25.638   5.768 -0.0713 -0.0053 -0.3347
    1W        W50481  14.886  20.066   5.743 -0.2983 -0.1691  0.2035
    1W        W50482  24.987  23.760   7.682  0.1759 -0.1460  0.0855
    1W        W50483  27.577  25.418   1.402 -0.1186  0.0729  0.4445
    1W        W50484  28.221  15.430   7.680 -0.0523 -0.5593  0.0596
    1W        W50485  26.884   1.283   1.130  0.2473 -0.1061 -0.3445
    1W        W50486  18.546   3.349   3.365  0.0454 -0.3507  0.2427
    1W        W50487  16.963   9.548   7.431  0.3256 -0.1186 -0.2688
    1W        W50488  17.860  12.833   7.081  0.3642  0.2981  0.0046
    1W        W50489  26.877   0.337   6.964  0.0911 -0.1874  0.2082
    1W        W50490  25.508  14.206   8.021 -0.0439  0.1167  0.0068
    1W        W50491  10.730  28.232   2.261 -0.1037 -0.2348 -0.1544
    1W        W50492   1.569   6.949   7.956  0.1082  0.2753  0.2115
    1W        W50493  10.220  22.795   9.237 -0.0630  0.2147  0.0237
    1W        W50494  20.820   5.810   9.401 -0.1469 -0.0230  0.0387
    1W        W50495   9.032  13.209   0.937  0.2781 -0.1617 -0.0039
    1W        W50496  16.231  25.330   8.330 -0.1570  0.3910  0.0201
    1W        W50497   6.199   7.893   9.117  0.1197 -0.1860  0.2216
    1W        W50498  17.007  18.306   1.881  0.0206 -0.2891 -0.0305
    1W        W50499  24.033   4.064   9.262 -0.0418  0.0948 -0.1521
    1W        W50500   9.605   2.583   0.195  0.1624 -0.1222 -0.0154
    1W        W50501   1.217   8.307   7.945 -0.1367  0.2339  0.2064
    1W        W50502   6.097  27.867   8.663  0.2613 -0.2526  0.1315
    1W        W50503   9.683  13.857   1.498 -0.0415 -0.1405 -0.1302
    1W        W50504  26.860   4.132   7.102 -0.1860  0.0269  0.1522
    1W        W50505  25.727  26.667   6.110  0.0065  0.3149  0.1812
    1W        W50506  26.752  18.853   1.749  0.0747 -0.1281 -0.2969
    1W        W50507   3.641   3.089   6.763  0.0545  0.0790  0.4395
    1W        W50508  26.812  21.300   8.373  0.1596 -0.0136  0.2091
    1W        W50509   0.771  12.011   6.415  0.0902 -0.1480  0.0166
    1W        W50510  11.172   8.932   1.617 -0.0480 -0.3503  0.2510
    1W        W50511   9.837   9.505   7.990 -0.0523  0.1006  0.0172
    1W        W50512  21.873  10.938   2.639 -0.0933  0.4278 -0.0355
    1W        W50513   6.578  17.965   2.019  0.1685  0.3809  0.0641
    1W        W50514  14.222  28.629   8.307  0.1034 -0.1435 -0.0331
    1W        W50515  19.353  11.286   1.240  0.0255 -0.0769 -0.1079
    1W        W50516   2.601   3.758   0.287  0.2349  0.0772 -0.2318
    1W        W50517   2.633  22.420   9.158 -0.3392  0.1517  0.2538
    1W        W50518  18.062  13.128   2.198  0.1708  0.1643  0.1187
    1W        W50519  17.662  20.702   8.064 -0.3417 -0.2156 -0.1604
    1W        W50520  26.696  14.623   7.679 -0.1123 -0.0112  0.3478
    1W        W50521   1.106  22.692   0.013 -0.2931  0.0502  0.2303
    1W        W50522  22.552  16.099   1.715 -0.0498  0.2084  0.1732
    1W        W50523   2.766  12.261   8.699 -0.3586  0.0314  0.0553
    1W        W50524   0.394   5.775   0.994 -0.0483  0.2038 -0.1709
    1W        W50525  22.183  12.757   0.490 -0.0665  0.0929  0.1039
    1W        W50526  21.338  20.587   7.194  0.0228 -0.2449  0.0324
    1W        W50527   5.014  13.262   0.013 -0.0179  0.0455  0.0867
    1W        W50528  16.334  29.840   1.238 -0.0061 -0.2140 -0.1873
    1W        W50529   0.126  13.145   2.324  0.0458 -0.1830 -0.1497
    1W        W50530   5.014  26.665   7.729 -0.2311 -0.0899 -0.0186
    1W        W50531   5.784  19.914   8.128 -0.2217 -0.1538  0.0574
    1W        W50532  14.052   3.272   3.386  0.0746 -0.0866  0.0959
    1W        W50533  21.072  12.290   0.008 -0.2369  0.1710  0.0259
    1W        W50534  22.646  17.611   8.146 -0.0101 -0.1104 -0.1288
    1W        W50535  14.603  22.845   0.442 -0.0286 -0.2950  0.0779
    1W        W50536  27.533  11.432   7.819  0.0058 -0.3277  0.0153
    1W        W50537  27.114  25.622   9.032  0.0044 -0.1113 -0.4574
    1W        W50538  15.422  12.065   0.300 -0.0141 -0.0443 -0.0164
    1W        W50539  26.682   9.747   3.248  0.3615 -0.2723 -0.1875
    1W        W50540  23.894   8.842   7.633  0.1470 -0.0336  0.2887
    1W        W50541  18.815  18.482   0.062 -0.2591  0.1050  0.2919
    1W        W50542   5.102  16.758   9.448 -0.0567 -0.2936 -0.0420
    1W        W50543  28.143  11.083   8.852  0.3384 -0.0909 -0.0161
    1W        W50544  25.659  21.321   9.079  0.2532 -0.0401  0.1315
    1W        W50545   2.038  13.020   2.836  0.1800 -0.3087 -0.2689
    1W        W50546  20.857  26.785   2.089 -0.2951 -0.1109 -0.0362
    1W        W50547   7.157  11.068   0.799  0.1398  0.1563  0.4383
    1W        W50548   0.209   5.398   8.784  0.0911  0.0174 -0.1324
    1W        W50549   6.281   0.742   2.091 -0.1544 -0.3957 -0.0743
    1W        W50550  18.856  27.666   7.699  0.0466 -0.3005 -0.0240
    1W        W50551  16.798  22.912   9.200  0.2467  0.1873  0.1737
    1W        W50552  25.197  25.615   8.316  0.2681 -0.1804 -0.2142
    1W        W50553  24.433   4.409   1.886  0.0371  0.1868 -0.0246
    1W        W50554   4.859  27.710   9.526  0.4474 -0.0490  0.1683
    1W        W50555  15.606   4.357   1.039 -0.1806  0.1219 -0.0454
    1W        W50556  26.212  22.943   2.126 -0.0968 -0.0774  0.1755
    1W        W50557  17.069  26.291   8.635  0.3156 -0.0175 -0.1665
    1W        W50558  19.856  17.649   6.776  0.2131  0.1278  0.0266
    1W        W50559   5.709  12.170   0.418  0.0411 -0.1945  0.1065
    1W        W50560  24.227  14.300   2.073  0.1173  0.1232 -0.1026
    1W        W50561   7.217   9.702   1.330  0.2111  0.0102 -0.0204
    1W        W50562   4.929  24.800   1.061  0.3362  0.0463 -0.1209
    1W        W50563   4.453  18.726   7.697  0.0652  0.0806  0.2002
    1W        W50564  19.285   4.069   0.484 -0.0149 -0.0494 -0.2577
    1W        W50565  26.685   5.407   1.164 -0.0825 -0.0975  0.0611
    1W        W50566  17.819  27.097   7.188 -0.0485 -0.1665 -0.0657
    1W        W50567  25.156  27.800   1.754 -0.0629 -0.0048  0.0474
    1W        W50568  14.218   4.003   0.039 -0.1692  0.1511  0.1695
    1W        W50569  26.357   1.160   3.665  0.2213 -0.3223  0.2279
    1W        W50570   3.373  19.519   9.283 -0.1820  0.1876  0.2767
    1W        W50571   5.688  19.718   1.643  0.1401 -0.0828 -0.2162
    1W        W50572  10.566   3.893   2.231 -0.0479  0.2065  0.0439
    1W        W50573  11.089  27.099   0.812 -0.0489 -0.2978 -0.1541
    1W        W50574   9.963  25.307   8.047 -0.0038  0.1904  0.1481
    1W        W50575   3.827  10.958   7.693  0.0720  0.3130 -0.0307
    1W        W50576  10.926  20.048   6.612 -0.2049 -0.0104  0.0723
    1W        W50577  29.680   8.055   8.298  0.0288  0.1396  0.0892
    1W        W50578  16.742   4.759   0.809  0.0292  0.2444  0.0920
    1W        W50579  12.065   5.149   8.039 -0.0662  0.3122  0.1080
    1W        W50580  19.043  20.412   7.348 -0.0294 -0.0041  0.1838
    1W        W50581   3.392   7.304   9.231 -0.0586  0.0873  0.0162
    1W        W50582  20.707  27.377   0.353 -0.2501 -0.0154 -0.1750
    1W        W50583  17.760  14.580   0.271 -0.1247  0.1311  0.0108
    1W        W50584  14.091  22.689   5.406  0.2345  0.0491 -0.0483
    1W        W50585  18.600  22.425   6.334 -0.0999 -0.0995  0.2950
    1W        W50586  13.622  16.579   2.471 -0.1131  0.1087 -0.0607
    1W        W50587  28.419  20.769   0.473  0.1577  0.4802 -0.1173
    1W        W50588  13.003   9.045   0.517  0.1286 -0.0808  0.0803
    1W        W50589  22.756  24.895   6.251 -0.0132  0.0960  0.2540
    1W        W50590  10.631  19.552   8.986  0.0053 -0.0474 -0.0832
    1W        W50591  24.870  13.188   9.318 -0.0979  0.0169 -0.1180
    1W        W50592  17.229  21.334   5.589 -0.0928  0.4009  0.4295
    1W        W50593  22.798  15.897   6.824  0.1395  0.0256 -0.1259
    1W        W50594  12.444   9.296   8.854  0.2937  0.0746  0.3263
    1W        W50595   9.337  27.459   1.497 -0.2387  0.2246  0.0523
    1W        W50596  22.123  24.051   2.707 -0.1593  0.1111 -0.2450
    1W        W50597  23.592  17.077   7.301 -0.3461 -0.0202 -0.0537
    1W        W50598  28.524  22.417   2.397 -0.2400  0.1233  0.0093
    1W        W50599  19.793  17.637   1.721  0.1411  0.1110  0.2186
    1W        W50600   2.070   5.761   7.416 -0.1078  0.1357 -0.0303
    1W        W50601   1.516  16.260   1.564 -0.0802 -0.0854  0.4488
    1W        W50602  17.688  20.154   6.062 -0.1985 -0.0034  0.3232
    1W        W50603   9.628  28.770   0.815 -0.1061 -0.1182  0.1837
    1W        W50604  20.363  13.108   7.909  0.0993 -0.2704  0.2448
    1W        W50605  29.841  22.547   7.118 -0.4477 -0.2410  0.0120
    1W        W50606  13.910  29.400   8.193 -0.0796 -0.0654  0.0977
    1W        W50607  18.289   1.511   3.408  0.0682 -0.0022  0.0464
    1W        W50608  12.196   0.597   7.844 -0.0170  0.1541 -0.3288
    1W        W50609   6.271   9.204   8.793 -0.1502 -0.1495  0.1755
    1W        W50610   1.080  15.220   8.299 -0.0815 -0.0486 -0.1382
    1W        W50611  10.038   3.662   1.618 -0.0108  0.1564 -0.1759
    1W        W50612   3.219  17.398   3.096  0.1405 -0.1021  0.1926
    1W        W50613  29.386  26.985   5.944  0.1257 -0.0544  0.1751
    1W        W50614  24.023   9.969   2.845  0.1557  0.3328 -0.1507
    1W        W50615   1.294  24.200   6.513 -0.1262 -0.1588  0.0209
    1W        W50616  16.817  14.116   2.258 -0.1177  0.2184 -0.0712
    1W        W50617   8.159  27.930   1.470  0.2016 -0.0028  0.0030
    1W        W50618  20.698  27.639   0.779 -0.0192 -0.0858 -0.0098
    1W        W50619   5.798  24.280   1.055 -0.0565 -0.4146  0.1150
    1W        W50620   0.665  15.500   8.138  0.0697  0.0797 -0.1788
    1W        W50621   9.293  27.747   2.135 -0.0039 -0.1583  0.3440
    1W        W50622  23.435  14.774   7.030 -0.0526  0.0584  0.2281
    1W        W50623  11.065  12.292   6.681 -0.1281 -0.3503  0.2290
    1W        W50624   8.469  22.103   9.255  0.1750  0.1093  0.3508
    1W        W50625  29.532  18.992   6.702  0.1743  0.1652 -0.1882
    1W        W50626  26.384  29.360   7.950  0.2072 -0.0153  0.1241
    1W        W50627  18.840  10.672   1.887  0.2285 -0.1232 -0.1507
    1W        W50628  14.805  10.950   7.943 -0.3639 -0.1222  0.3527
    1W        W50629   2.693   4.113   0.798  0.3170 -0.1651 -0.3491
    1W        W50630  25.910   1.950   0.178 -0.2675  0.0067 -0.0552
    1W        W50631  16.812  10.736   7.642  0.1361 -0.0567 -0.0215
    1W        W50632  12.100   2.445   9.508  0.1452  0.0680  0.0305
    1W        W50633  21.071  29.281   0.088  0.3298  0.1904  0.1731
    1W        W50634  26.464  18.570   0.130 -0.0266  0.1732 -0.1482
    1W        W50635  13.551  10.821   0.606  0.0341  0.0860 -0.2305
    1W        W50636   2.304  25.155   0.234 -0.0222 -0.0028 -0.0542
    1W        W50637   8.594   2.426   2.665 -0.1986 -0.2459  0.1119
    1W        W50638  25.915   2.820   2.388 -0.1789  0.1321 -0.1295
    1W        W50639  18.886  11.086   9.162  0.1597  0.0596 -0.1565
    1W        W50640   5.635  20.211   0.943 -0.0070  0.1671 -0.2452
    1W        W50641   6.226  24.120   8.290 -0.0883 -0.1550  0.0391
    1W        W50642  29.834   4.825   9.244 -0.4354 -0.2660 -0.0489
    1W        W50643  27.206  11.812   2.731  0.2514  0.2163 -0.3174
    1W        W50644   3.353  19.865   0.214  0.2185 -0.0169  0.2463
    1W        W50645  15.745  20.117   7.151  0.0236  0.2772 -0.3381
    1W        W50646  22.309  29.815   2.340  0.3586  0.0548  0.0548
    1W        W50647  17.066  17.945   8.066 -0.0459 -0.0728 -0.0390
    1W        W50648   9.294  13.728   9.421 -0.1696  0.0214 -0.1586
    1W        W50649   7.843   7.657   1.745 -0.3543 -0.1084 -0.3337
    1W        W50650   4.029   2.318   0.470  0.1419 -0.0864 -0.0281
    1W        W50651   5.236  28.746   6.121 -0.0977 -0.0043  0.0120
    1W        W50652  18.230   0.353   2.097  0.0840  0.1516  0.0319
    1W        W50653  27.640  17.176   6.949  0.0841  0.1812 -0.0136
    1W        W50654   4.941  17.226   9.376 -0.0257  0.0737  0.2530
    1W        W50655  13.531   9.522   0.817  0.0956 -0.2204 -0.1065
    1W        W50656  21.653  21.762   8.497  0.0363  0.0469  0.0977
    1W        W50657  23.883   3.079   1.611  0.0472  0.2376 -0.1326
    1W        W50658  13.341  16.469   7.938 -0.2791 -0.1607 -0.1222
    1W        W50659   3.302  24.289   2.299  0.0998 -0.0443 -0.2047
    1W        W50660  22.377  18.949   0.873  0.0212 -0.1582 -0.0371
    1W        W50661  12.788  28.423   7.339 -0.0865 -0.4103  0.2228
    1W        W50662  15.399   7.323   8.486  0.2541 -0.1320  0.1958
    1W        W50663   3.936  20.206   7.717 -0.0000  0.1822 -0.0553
    1W        W50664  24.858  20.019   0.045 -0.0853 -0.0977  0.0320
    1W        W50665   0.173   4.197   9.334 -0.1804  0.0662  0.0918
    1W        W50666  18.342   7.584   0.854 -0.1067  0.2201  0.1365
    1W        W50667  20.529   1.294   1.097  0.1991  0.1254  0.0496
    1W        W50668  12.042  19.926   1.115 -0.0643  0.0613 -0.1963
    1W        W50669  17.378   9.147   2.108  0.4164  0.1173  0.0843
    1W        W50670  23.799  19.061   1.024 -0.3448  0.0685  0.4408
    1W        W50671   7.472  20.654   0.692  0.1802 -0.0473  0.1097
    1W        W50672   2.667  19.831   2.478  0.1298 -0.0794 -0.2292
    1W        W50673  11.274  17.952   1.986  0.0551 -0.1188 -0.1158
    1W        W50674   7.192   2.000   2.795  0.4553  0.1107  0.3084
    1W        W50675  26.373   5.809   2.721  0.0141  0.0838 -0.0184
    1W        W50676  15.502  12.205   1.953 -0.0554 -0.1373  0.0369
    1W        W50677  10.403   2.447   2.923 -0.1707  0.1079  0.0148
    1W        W50678   5.847  24.644   8.801  0.0014 -0.0851  0.1647
    1W        W50679  18.230   2.888   2.428  0.0304  0.2904 -0.1706
    1W        W50680   5.546  26.908   0.489  0.1070 -0.1495 -0.1141
    1W        W50681  29.054  15.217   7.985 -0.0521 -0.2670  0.2924
    1W        W50682  15.443  12.642   0.061 -0.0301 -0.0253  0.1082
    1W        W50683   2.796  25.121   0.256 -0.2571 -0.0670 -0.0954
    1W        W50684  17.228  19.989   0.869 -0.2787 -0.1334 -0.0358
    1W        W50685   2.924   8.791   0.671 -0.1269 -0.3973  0.1118
    1W        W50686  29.674  19.006   8.830 -0.2770 -0.1540  0.1082
    1W        W50687   7.387  27.782   6.710  0.0173  0.0415 -0.2114
    1W        W50688   9.292  27.000   1.150  0.0973  0.1781 -0.0728
    1W        W50689  21.870   3.468   9.383  0.0581 -0.1122 -0.0315
    1W        W50690  24.309  20.304   7.780  0.1154  0.1181 -0.0442
    1W        W50691  27.747  25.343   1.866  0.1557  0.0817 -0.0751
    1W        W50692  16.211   5.807   7.783 -0.2170 -0.2561  0.2897
    1W        W50693   0.534   0.748   1.555 -0.0870  0.0953  0.1794
    1W        W50694  18.150  22.483   6.545 -0.0062  0.0501 -0.3254
    1W        W50695  22.646   5.224   2.261 -0.2853 -0.1698 -0.1101
    1W        W50696  23.966   8.225   2.232  0.2675 -0.0432  0.2423
    1W        W50697   3.087   1.766   1.879  0.1606  0.1786 -0.1673
    1W        W50698  24.621  17.227   6.116 -0.1931 -0.2180 -0.0270
    1W        W50699  29.599  14.656   3.336  0.2280 -0.0937 -0.2965
    1W        W50700   1.234  17.198   8.491  0.3211  0.1635  0.1813
    1W        W50701   3.382  25.758   0.628 -0.0142  0.0150 -0.2660
    1W        W50702  16.856  24.126   0.078 -0.3699 -0.0479  0.1967
    1W        W50703  20.907  19.715   9.501  0.0026  0.1745  0.0465
    1W        W50704  16.259  23.157   7.188 -0.3461 -0.0426  0.2315
    1W        W50705  16.925   6.786   1.646 -0.0304 -0.0319 -0.2743
    1W        W50706  26.402   1.264   0.515  0.3470  0.1450 -0.1095
    1W        W50707  16.529  26.867   0.083  0.0469 -0.1240  0.3453
    1W        W50708   6.876  23.883   6.639 -0.1343  0.1713 -0.2526
    1W        W50709  22.802  29.721   2.604  0.3369  0.1117  0.1443
    1W        W50710  29.797   4.739   8.386  0.2648  0.2284 -0.2296
    1W        W50711  14.434  12.512   8.735  0.2107  0.0946  0.0099
    1W        W50712   1.141   3.504   6.878 -0.0325 -0.1139  0.0905
    1W        W50713  24.946  13.958   7.715 -0.1338  0.0887  0.2985
    1W        W50714  24.362  19.905   0.097 -0.3355  0.2075  0.0464
    1W        W50715   7.115  25.385   7.600 -0.0458  0.1162  0.1835
    1W        W50716  28.093   9.965   7.140  0.0523  0.0109  0.0592
    1W        W50717   8.886   1.467   8.437  0.1750  0.1027 -0.2425
    1W        W50718  11.934   8.144   7.189 -0.2921 -0.4113 -0.2465
    1W        W50719  25.387  20.932   8.728  0.1236 -0.2901 -0.0521
    1W        W50720  28.618   4.247   7.159 -0.2809  0.1796 -0.1228
    1W        W50721  17.531   4.966   3.743  0.0229  0.1954 -0.1341
    1W        W50722  21.043  17.663   1.441  0.0982 -0.1200 -0.3863
    1W        W50723  24.637  18.000   2.782 -0.1525 -0.0172 -0.2861
    1W        W50724  14.027  21.067   8.783 -0.1023  0.2453 -0.1721
    1W        W50725  18.117  14.719   9.322  0.1106  0.2024  0.3341
    1W        W50726  20.390  14.953   8.775  0.1516 -0.1507 -0.5099
    1W        W50727  10.146  13.438   0.581  0.2147  0.1611 -0.2645
    1W        W50728  29.205   1.576   6.126  0.1089  0.0328 -0.2786
    1W        W50729  12.862   8.935   1.011 -0.2869 -0.2331 -0.1646
    1W        W50730   7.340  23.857   8.422 -0.1986  0.0550 -0.0037
    1W        W50731  14.636  12.531   9.302  0.0554  0.1663 -0.0344
    1W        W50732  10.332  25.940   8.902 -0.1086 -0.1461  0.0335
    1W        W50733   5.763  26.343   1.353  0.0949 -0.2383  0.3629
    1W        W50734  14.448  16.817   0.152  0.0891 -0.0625 -0.2091
    1W        W50735   4.999  14.388   7.385 -0.1652 -0.1054 -0.3097
    1W        W50736   4.841  22.145   1.250 -0.3629  0.0728 -0.1495
    1W        W50737   0.490  14.459   9.084  0.2549 -0.0318 -0.4325
    1W        W50738  15.637   6.764   2.769 -0.0524  0.2410 -0.1708
    1W        W50739  11.657   4.598   3.465 -0.2033 -0.4027 -0.1852
    1W        W50740  28.100   4.446   0.681  0.2928 -0.0464 -0.1248
    1W        W50741   5.624  21.274   8.966  0.0630 -0.0016 -0.0479
    1W        W50742  10.138   6.312   2.831  0.2502 -0.0842  0.0413
    1W        W50743  26.694   8.587   7.950 -0.0164 -0.3214 -0.0255
    1W        W50744   5.654   4.575   9.074 -0.2164  0.0285 -0.1731
    1W        W50745  11.680  12.075   2.512 -0.0445 -0.0112 -0.0524
    1W        W50746   0.702   7.245   9.297  0.2645 -0.1909 -0.0466
    1W        W50747  16.850   5.147   3.838  0.4269 -0.0999 -0.0434
    1W        W50748  25.286  29.037   7.481 -0.1121 -0.2888 -0.0506
    1W        W50749  22.659   5.206   0.627  0.0432  0.2254 -0.3142
    1W        W50750  21.986   3.747   2.463  0.0898  0.2134  0.0952
    1W        W50751  28.880  28.207   1.707  0.0583  0.2185  0.1144
    1W        W50752   5.971   7.431   3.239  0.2464 -0.0552 -0.1146
    1W        W50753  12.330  14.718   9.523 -0.3353  0.1845 -0.0981
    1W        W50754   2.805  12.336   6.071 -0.3644  0.0195 -0.3163
    1W        W50755  25.387  12.300   7.757  0.0776 -0.0550 -0.0834
    1W        W50756  28.744  10.327   2.687 -0.0171 -0.1180  0.0121
    1W        W50757  29.271   2.078   7.591 -0.1147 -0.0182 -0.0374
    1W        W50758   7.778   6.093   2.004  0.0012 -0.0915  0.0187
    1W        W50759   3.783   5.790   7.516  0.2221  0.2531  0.1821
    1W        W50760   7.868  10.430   2.404 -0.1378 -0.0879  0.1754
    1W        W50761   6.524   4.741   8.742  0.0488  0.0559 -0.2809
    1W        W50762  26.407   1.854   1.689 -0.2145 -0.1624 -0.0712
    1W        W50763   9.872   5.343   0.716  0.0208  0.2825 -0.3928
    1W        W50764  10.310  22.490   6.133 -0.1492 -0.2104  0.1370
    1W        W50765  15.752   1.936   0.969  0.2217 -0.4182 -0.0816
    1W        W50766  11.282   9.535   1.011  0.3090 -0.0474 -0.0521
    1W        W50767  28.036  15.960   0.021 -0.1723 -0.0371 -0.0925
    1W        W50768  10.931  24.647   7.311  0.2022  0.2344 -0.1294
    1W        W50769   4.029  26.626   1.890 -0.2456 -0.1497 -0.1598
    1W        W50770  10.478  27.891   9.376 -0.0057 -0.0637 -0.2213
    1W        W50771   2.790   8.752   1.988  0.1148  0.0920  0.0776
    1W        W50772  12.161  15.282   5.892 -0.0884 -0.1082  0.2117
    1W        W50773  29.711  12.676   6.831  0.1080  0.3005  0.1844
    1W        W50774  23.112   1.276   1.879 -0.1517  0.0016  0.2792
    1W        W50775  26.202  23.998   7.763 -0.3682 -0.0527  0.4562
    1W        W50776  21.466   4.453   2.428  0.2262 -0.2090  0.1133
    1W        W50777  10.103   7.765   0.492 -0.3195  0.3001  0.1787
    1W        W50778  13.006  11.078   7.993 -0.0170 -0.3226 -0.2052
    1W        W50779  18.741  17.696   9.274  0.1172 -0.2756  0.1125
    1W        W50780   8.053  29.045   7.044 -0.1995 -0.0029 -0.2152
    1W        W50781  21.540   6.413   1.550 -0.1242 -0.3873 -0.1551
    1W        W50782  26.539  19.799   1.480  0.1794 -0.0531 -0.2117
    1W        W50783   4.418   3.302   3.399  0.0976 -0.0038 -0.0454
    1W        W50784  25.024   2.608   9.017 -0.1171 -0.0358  0.1668
    1W        W50785  11.440  28.958   2.028  0.1187 -0.1518 -0.0537
    1W        W50786   3.705   1.694   0.085 -0.0434 -0.3894  0.0606
    1W        W50787   9.979  23.062   8.456 -0.0735 -0.3752 -0.1356
    1W        W50788  14.385   6.555   0.832 -0.1618 -0.1348  0.0136
    1W        W50789  24.513  11.698   7.964  0.3315  0.0545 -0.1538
    1W        W50790   4.650   7.665   7.232  0.0266  0.2495  0.0883
    1W        W50791  28.115  11.579   8.660  0.0914 -0.0633  0.0376
    1W        W50792   7.494  10.697   2.212  0.2997 -0.1084  0.0929
    1W        W50793  25.163  29.691   2.562 -0.1957 -0.3747  0.4509
    1W        W50794  12.426   5.930   8.000 -0.0104 -0.2904  0.1953
    1W        W50795   8.103   2.407   7.313 -0.2497 -0.0598  0.1450
    1W        W50796   9.434  21.669   9.177  0.0215  0.0315  0.1585
    1W        W50797   1.094  13.780   8.313  0.2814 -0.2081 -0.0691
    1W        W50798  26.271   2.815   2.019 -0.0086 -0.1682  0.1929
    1W        W50799  18.561  22.208   9.063  0.3903  0.1027 -0.1432
    1W        W50800  20.494   7.354   8.999  0.2878  0.1818 -0.5249
    1W        W50801   0.329  29.747   8.318 -0.0359 -0.1858  0.2838
    1W        W50802  14.816  17.102   1.745  0.1220  0.0392  0.0767
    1W        W50803  26.956  12.001   1.920 -0.1725  0.0700  0.0037
    1W        W50804   6.368  29.608   6.686 -0.0038 -0.3344  0.0212
    1W        W50805  11.488   2.236   3.312  0.0066  0.0342 -0.2582
    1W        W50806  15.193  16.420   8.635 -0.2589  0.2433  0.0349
    1W        W50807   1.081  15.743   6.981  0.0156  0.2360  0.1218
    1W        W50808   4.623   9.769   0.036  0.2408 -0.1072  0.1200
    1W        W50809   5.271   6.501   7.927 -0.0359 -0.0269  0.1082
    1W        W50810  28.718  18.132   2.332 -0.2113 -0.0001  0.1007
    1W        W50811   4.706  13.653   0.740 -0.1862 -0.0075  0.2984
    1W        W50812   2.526  12.959   0.985  0.1951  0.0774  0.4300
    1W        W50813  16.078  12.454   2.097 -0.1723  0.1772  0.2406
    1W        W50814  25.686  10.540   7.760 -0.0351 -0.0468  0.0011
    1W        W50815  14.178  23.613   0.743  0.0541  0.0289  0.2148
    1W        W50816  22.995  17.336   1.738 -0.1802  0.0979 -0.0035
    1W        W50817  10.393  16.381   2.539  0.2174 -0.0830  0.0968
    1W        W50818  21.353  16.320   7.300  0.0440 -0.1425 -0.0854
    1W        W50819  27.415   0.878   2.229 -0.0180  0.1529 -0.1013
    1W        W50820  15.251   1.333   0.762  0.2054  0.0261  0.1609
    1W        W50821  18.062  22.721   1.167  0.2972 -0.0311  0.1108
    1W        W50822   7.285   7.353   9.375 -0.2281 -0.0070  0.3227
    1W        W50823   6.719  11.713   8.052  0.0935  0.1653 -0.1345
    1W        W50824  11.905   9.134   9.448 -0.1157 -0.2634  0.0000
    1W        W50825   4.134  20.713   7.471 -0.0854  0.1705  0.4987
    1W        W50826  14.767  29.553   8.466  0.1647  0.3219  0.0207
    1W        W50827   3.142  19.132   8.976  0.1226  0.1087 -0.1935
    1W        W50828  29.600   1.205   1.105 -0.1703 -0.0917  0.0933
    1W        W50829  20.645  27.324   7.521  0.1488 -0.1206 -0.2705
    1W        W50830  13.878   5.829   1.290 -0.1964 -0.1142  0.1438
    1W        W50831   9.124   7.482   1.429 -0.0153  0.0000  0.2807
    1W        W50832  15.935   1.874   0.184 -0.1784  0.1998 -0.4089
    1W        W50833  21.463  21.667   8.022  0.0864  0.1525  0.2757
    1W        W50834   4.639  21.996   8.070 -0.0214 -0.0639  0.2874
    1W        W50835  28.478  21.919   2.154  0.1601  0.0571  0.1878
    1W        W50836  11.674  20.308   8.270  0.1886 -0.3138 -0.2166
    1W        W50837  16.784   0.926   8.702  0.0280 -0.2111 -0.3914
    1W        W50838  23.793   5.338   9.236 -0.0724 -0.0125  0.0041
    1W        W50839   6.458  20.931   6.886  0.2053  0.0776  0.1960
    1W        W50840  23.537  15.961   1.111  0.1686 -0.0100 -0.1781
    1W        W50841  15.980   2.367   0.503 -0.1299 -0.0937 -0.2618
    1W        W50842   5.191   3.325   7.534 -0.1053 -0.3259  0.0254
    1W        W50843  18.635  24.011   7.472  0.3248  0.0271 -0.0131
    1W        W50844   0.708  26.967   8.376  0.1897 -0.0345  0.1397
    1W        W50845  18.874  25.660   6.701  0.0986 -0.0181  0.0692
    1W        W50846   0.442  28.865   0.929 -0.2700  0.4639 -0.2809
    1W        W50847  11.434  14.027   0.754  0.1665 -0.1530 -0.0734
    1W        W50848  12.155  23.131   0.113 -0.1015  0.2314 -0.1635
    1W        W50849  12.706  10.337   6.551 -0.0405  0.3726  0.0121
    1W        W50850   2.153  27.579   7.114  0.0974  0.3412 -0.1204
    1W        W50851   4.230  29.362   9.017 -0.1036 -0.2021 -0.2496
    1W        W50852  20.891  26.381   7.799  0.0394  0.2761 -0.0626
    1W        W50853  10.610   9.386   7.383  0.0508  0.4276 -0.0440
    1W        W50854  26.551  11.692   7.860  0.1353 -0.0770 -0.0735
    1W        W50855  16.800   7.227   2.585  0.1667  0.0995 -0.2958
    1W        W50856  14.775  15.305   0.483 -0.4840  0.2092 -0.2115
    1W        W50857   4.443   0.100   6.768 -0.2209  0.3455 -0.0952
    1W        W50858  21.857  14.112   0.760 -0.1056  0.2101 -0.1804
    1W        W50859   7.339  24.997   7.900 -0.0172 -0.2346 -0.2175
    1W        W50860   0.447  20.113   9.055 -0.3434  0.0567 -0.2075
    1W        W50861  17.699  24.654   7.074  0.1485  0.1601  0.0038
    1W        W50862   5.446  15.963   1.714  0.0804  0.0210  0.1324
    1W        W50863  27.813  24.210   0.776  0.0036  0.1022 -0.2373
    1W        W50864  28.680   4.446   0.627 -0.1375  0.1962 -0.2561
    1W        W50865  18.978  18.572   7.293  0.0376  0.1209  0.7849
    1W        W50866   9.481   2.751   3.768  0.2343  0.1979 -0.2333
    1W        W50867  12.671  29.155   7.625 -0.0011  0.3911  0.2157
    1W        W50868   8.923  18.155   1.609  0.1091 -0.0410 -0.1084
    1W        W50869  28.863  12.753   8.184 -0.0720  0.1768 -0.0080
    1W        W50870  27.868  13.252   0.480 -0.0320 -0.0330 -0.3499
    1W        W50871  15.286  17.695   8.386  0.1307 -0.3466  0.0081
    1W        W50872   8.525  22.232   6.240  0.0555  0.0200 -0.2770
    1W        W50873  18.090  27.123   0.074  0.0333 -0.3217  0.1264
    1W        W50874   2.974  16.903   9.424  0.0347 -0.0273 -0.1286
    1W        W50875   7.872   8.407   7.619  0.0224 -0.0366 -0.1872
    1W        W50876  15.524   1.884   3.290 -0.4887 -0.1003 -0.1747
    1W        W50877   7.244  20.805   7.543 -0.0550 -0.1467 -0.1395
    1W        W50878   6.184  29.699   2.375  0.0288  0.0273 -0.0298
    1W        W50879  29.357  17.487   6.830 -0.2446 -0.0533 -0.1839
    1W        W50880  24.985  13.812   0.311  0.2051 -0.0832 -0.0037
    1W        W50881   4.862   9.313   0.130  0.0495 -0.1496 -0.1640
    1W        W50882  12.766   6.777   1.634 -0.1084 -0.2099  0.0906
    1W        W50883   9.370   2.519   0.643  0.1379  0.1574  0.4211
    1W        W50884  26.223  26.520   8.448  0.1529 -0.2677  0.1304
    1W        W50885  12.175   9.495   0.915  0.0238 -0.1380 -0.0891
    1W        W50886  26.832  18.822   9.118  0.0202  0.0039  0.0729
    1W        W50887   3.082  20.808   7.761 -0.0215  0.0102 -0.0671
    1W        W50888  25.228  14.713   6.986  0.1629 -0.2935  0.2072
    1W        W50889  16.278   6.911   3.293 -0.2059 -0.2151  0.0778
    1W        W50890  27.379  21.945   2.641  0.2398  0.1674 -0.1806
    1W        W50891   7.563   8.666   1.436 -0.1161  0.0344  0.0377
    1W        W50892   2.842  27.814   0.492  0.1602 -0.4356  0.0644
    1W        W50893  28.532   9.499   7.775  0.1061  0.0444 -0.1314
    1W        W50894  14.177  18.109   1.289  0.0453  0.1667  0.0207
    1W        W50895  17.071  25.229   9.530  0.4136 -0.1402  0.1810
    1W        W50896  24.740   0.843   7.425  0.2012 -0.1191 -0.1573
    1W        W50897   9.251  25.941   2.222 -0.1734  0.2808 -0.1030
    1W        W50898  18.760   6.449   2.526 -0.0624 -0.0161 -0.0367
    1W        W50899  17.072  12.901   0.789  0.1158 -0.2758  0.1517
    1W        W50900  28.815   2.162   1.375  0.0350 -0.1046  0.0669
    1W        W50901  23.486  24.064   8.700  0.1743 -0.0244  0.0269
    1W        W50902   7.153  25.179   2.493  0.2611 -0.2347 -0.0759
    1W        W50903  28.198  12.116   8.342 -0.2958 -0.1250 -0.0482
    1W        W50904   7.565  13.556   8.328 -0.5456 -0.1673 -0.1065
    1W        W50905   6.637  19.296   8.629 -0.2243  0.1568  0.0227
    1W        W50906   1.150   9.078   6.637 -0.3218 -0.0292 -0.0567
    1W        W50907  13.315  29.724   2.363 -0.0906  0.4141 -0.0916
    1W        W50908  27.814  28.267   7.617 -0.1374 -0.0174 -0.1724
    1W        W50909  17.109  18.997   2.333  0.0788  0.0606  0.0597
    1W        W50910  12.428   1.335   8.940 -0.2083 -0.0648  0.1225
    1W        W50911  17.300  16.643   7.847  0.3684  0.0161 -0.0910
    1W        W50912  13.898   4.146   3.608 -0.2920 -0.1230 -0.1364
    1W        W50913   4.890   1.469   9.114  0.0314  0.0354 -0.2110
    1W        W50914   6.156   8.235   1.668 -0.0805  0.0836 -0.2620
    1W        W50915  21.334  13.079   1.205 -0.2171  0.1173 -0.1889
    1W        W50916  14.476   6.440   0.307  0.0832  0.2010 -0.0688
    1W        W50917  12.653  13.464   8.424  0.2624  0.0301 -0.0480
    1W        W50918  21.975  15.706   7.995  0.1484  0.0341 -0.2488
    1W        W50919   9.033  16.417   1.985  0.0178  0.0033  0.3269
    1W        W50920  24.924  16.341   1.777  0.0057  0.1676 -0.0099
    1W        W50921  24.390  27.389   6.926 -0.1208  0.2610 -0.2672
    1W        W50922  19.953   4.786   2.945 -0.0647  0.1978  0.1322
    1W        W50923  16.474  10.286   2.541 -0.0860 -0.2339  0.0517
    1W        W50924  24.259  15.759   2.120  0.1751  0.1586  0.0387
    1W        W50925  28.973   8.503   8.934  0.3185 -0.1259  0.0023
    1W        W50926  25.816   7.527   7.860 -0.4122 -0.2473  0.1024
    1W        W50927   7.871  28.857   8.041 -0.3317 -0.0416 -0.0035
    1W        W50928  25.925  26.742   1.834  0.0162 -0.3185  0.1568
    1W        W50929   1.878  13.392   2.491  0.1575 -0.1659  0.0784
    1W        W50930  19.016  25.870   1.359  0.2610 -0.1196 -0.1241
    1W        W50931  12.010  28.554   9.422  0.0542  0.0289 -0.1221
    1W        W50932   7.262   4.776   8.432  0.2208 -0.0045  0.0528
    1W        W50933   2.045   4.517   1.472  0.3955  0.0526  0.1224
    1W        W50934   8.263  16.040   8.657  0.0344 -0.0711  0.0821
    1W        W50935  15.318   4.651   0.773  0.0809 -0.0787 -0.1866
    1W        W50936  15.463   2.591   8.459  0.0065 -0.1261  0.0376
    1W        W50937  23.058  11.878   0.537 -0.3648  0.1831 -0.1517
    1W        W50938  10.346  14.939   6.624  0.0147 -0.1644  0.2355
    1W        W50939  11.765  12.660   2.438 -0.2482  0.2035 -0.0118
    1W        W50940   6.938  27.621   7.730  0.1220  0.1832 -0.1016
    1W        W50941  29.813   0.156   1.058  0.0178  0.0285  0.1802
    1W        W50942  21.497  11.617   7.260  0.0131  0.1583  0.1358
    1W        W50943  11.645   0.033   1.114  0.0664  0.0274  0.0043
    1W        W50944   9.420  27.362   0.020 -0.1309 -0.0918  0.0390
    1W        W50945  22.858   7.129   8.352 -0.2802 -0.2227  0.0629
    1W        W50946  15.678  19.515   6.517 -0.1094 -0.1608 -0.1532
    1W        W50947  14.183  16.187   9.185 -0.3374  0.0611  0.2020
    1W        W50948  17.750  26.034   0.044 -0.2081  0.0923 -0.2525
    1W        W50949  17.800  27.812   1.221 -0.0952  0.1928  0.2727
    1W        W50950  10.233  15.430   9.179 -0.0119  0.3209 -0.0192
    1W        W50951  29.031  18.355   0.187  0.1066 -0.1623  0.0752
    1W        W50952  13.448   8.210   0.131 -0.1076  0.0471 -0.2346
    1W        W50953   3.388  15.768   8.100 -0.0841 -0.2352  0.2415
    1W        W50954  15.181   5.011   1.803  0.3707 -0.0356  0.1297
    1W        W50955  22.160   1.856   0.615  0.0830  0.0976 -0.2129
    1W        W50956   3.138  15.871   9.394  0.0458  0.5374  0.0006
    1W        W50957  11.873  29.380   8.874  0.1126  0.1310 -0.0865
    1W        W50958  20.079  14.338   9.358 -0.0795 -0.0185  0.0479
    1W        W50959  28.289  25.099   0.808 -0.0852  0.0841 -0.0159
    1W        W50960   5.233   7.777   6.295  0.1230 -0.0189  0.0985
    1W        W50961  12.482  10.159   8.544 -0.3005 -0.1684  0.2595
    1W        W50962  16.447   8.010   9.403  0.0944  0.2799  0.0186
    1W        W50963  18.379  26.829   0.866 -0.0897  0.0925 -0.2573
    1W        W50964  29.824  26.028   8.391 -0.2857  0.1675  0.0187
    1W        W50965  18.470   1.896   8.624 -0.0635 -0.1758  0.1650
    1W        W50966  14.378  27.860   1.690  0.5516  0.1246 -0.2756
    1W        W50967  18.042  22.165   9.157 -0.0780  0.2013 -0.3605
    1W        W50968   2.752  11.931   0.923  0.0110  0.4293  0.1690
    1W        W50969  18.286   0.949   1.556  0.1431  0.1078 -0.1617
    1W        W50970   2.354  15.670   6.208 -0.2734 -0.1534 -0.1728
    1W        W50971  11.970  17.831   7.082 -0.1627  0.0667 -0.3791
    1W        W50972  16.229  17.432   0.178 -0.3951  0.1245 -0.0681
    1W        W50973  13.198   2.832   9.130  0.0788  0.0646  0.3666
    1W        W50974   7.230   5.041   2.569 -0.2458 -0.3161  0.3115
    1W        W50975   5.710  22.289   7.303  0.0593  0.0661  0.0162
    1W        W50976  16.947   4.971   1.259 -0.1475 -0.1018  0.1850
    1W        W50977   2.133   3.651   3.476 -0.2553  0.1424 -0.2417
    1W        W50978   6.007  14.672   8.349  0.1133  0.0447  0.2845
    1W        W50979  28.375  19.244   8.612  0.1422 -0.0608  0.0373
    1W        W50980  23.210  13.639   7.428 -0.3012  0.2516  0.2405
    1W        W50981  17.268  15.818   7.530 -0.1256 -0.0845 -0.0190
    1W        W50982  10.489   2.479   2.404 -0.0871  0.0738 -0.0304
    1W        W50983  24.197   1.524   7.626  0.0812  0.0201 -0.0686
    1W        W50984  17.090  19.583   8.227 -0.1066  0.2052 -0.2117
    1W        W50985   2.458  21.993   0.433 -0.0941  0.0649  0.1913
    1W        W50986  14.585  18.038   9.091 -0.1155 -0.2280  0.1306
    1W        W50987   4.465  25.557   1.163  0.0402 -0.2074 -0.0521
    1W        W50988   9.054  29.456   2.095 -0.1398 -0.1310  0.0386
    1W        W50989   2.900   3.938   2.528  0.1002  0.2187  0.0834
    1W        W50990   2.087  24.841   8.939 -0.0055 -0.2621  0.0050
    1W        W50991  28.595  27.178   8.135  0.3647  0.1116  0.1286
    1W        W50992  11.370  19.430   8.688  0.0145 -0.0353 -0.0230
    1W        W50993   8.444  17.634   6.551  0.0561  0.0293 -0.3227
    1W        W50994  10.767  25.665   0.888 -0.2099  0.0262 -0.0590
    1W        W50995  28.745  18.901   7.071 -0.1169 -0.1597 -0.0228
    1W        W50996  24.136  21.129   2.793  0.2183  0.0247 -0.1612
    1W        W50997  21.158  27.098   9.033 -0.0218 -0.0269  0.0641
    1W        W50998   8.825  17.797   6.824  0.2601  0.0663  0.0932
    1W        W50999   1.596  22.142   8.104  0.0982  0.1555 -0.1428
    1W        W51000   2.501   9.648   1.753  0.2846 -0.0050 -0.4604
    1W        W51001  18.101  18.587   9.345 -0.3380 -0.0107  0.3928
    1W        W51002  24.820  28.407   8.025  0.0954  0.3659  0.0322
    1W        W51003   0.826  12.037   6.911  0.0535  0.0011 -0.0437
    1W        W51004  21.459  22.770   8.446 -0.2525  0.2272 -0.2917
    1W        W51005  15.890   8.085   2.750 -0.0262  0.0647 -0.0932
    1W        W51006  24.889   1.349   1.899 -0.0834  0.1243  0.1610
    1W        W51007   0.493  26.041   8.516  0.1072  0.0312  0.0275
    1W        W51008  16.903  16.136   1.111 -0.3339  0.0087 -0.0496
    1W        W51009   2.557  14.627   8.450  0.0841  0.4185 -0.1052
    1W        W51010   8.837  20.819   7.060 -0.0216  0.2216  0.2054
    1W        W51011   8.348   9.667   2.283  0.2148  0.2903  0.2090
    1W        W51012   6.149  25.796   0.790 -0.3582  0.1986  0.2245
    1W        W51013  23.404   7.415   3.167 -0.3222  0.0888 -0.2690
    1W        W51014  13.303  26.052   9.361  0.1096 -0.3206 -0.3601
    1W        W51015  28.962   7.581   6.853 -0.0703 -0.1837  0.0119
    1W        W51016  10.196  20.583   2.695  0.2737  0.0059  0.1639
    1W        W51017   6.089   4.235   2.344 -0.1198  0.0857 -0.0358
    1W        W51018  11.743  28.053   7.489  0.1109  0.3402  0.2803
    1W        W51019  17.392   5.095   1.475 -0.0657 -0.0177  0.1702
    1W        W51020  10.387  10.909   0.399  0.1036  0.2042 -0.0078
    1W        W51021   7.166  21.846   0.765 -0.2427  0.2300  0.1510
    1W        W51022  21.537  29.531   0.355 -0.0979  0.2019 -0.0694
    1W        W51023  14.595  15.125   2.089 -0.2346 -0.0424  0.0092
    1W        W51024  17.817  23.597   8.861 -0.0959  0.0114 -0.3782
    1W        W51025  18.788  29.586   2.630 -0.0363  0.1886  0.0136
    1W        W51026   3.664   3.367   2.753  0.2421 -0.0488 -0.2887
    1W        W51027  19.877  14.042   0.737  0.1185 -0.1309  0.1302
    1W        W51028   0.834  24.982   9.483 -0.1253  0.0024  0.0612
    1W        W51029   4.203  13.948   2.068 -0.1620 -0.0903  0.0579
    1W        W51030  27.448  22.847   1.808 -0.0397  0.2259 -0.1367
    1W        W51031   7.650   2.817   0.445 -0.2072  0.0097  0.2852
    1W        W51032   5.217  10.437   0.533  0.1500  0.2414 -0.0780
    1W        W51033   2.890   2.569   7.732 -0.0498  0.1041 -0.1668
    1W        W51034   8.984  26.094   8.515 -0.2743 -0.1521  0.0115
    1W        W51035  15.195  13.749   7.691  0.2800 -0.1663 -0.0889
    1W        W51036  12.731  29.025   2.277  0.1986 -0.1647  0.2069
    1W        W51037  27.407   9.514   8.438 -0.0982 -0.1770  0.0021
    1W        W51038   3.172  15.181   6.591 -0.0355  0.2475  0.1093
    1W        W51039  21.146  19.939   5.987 -0.1087  0.1240 -0.0450
    1W        W51040  24.658   0.335   7.479  0.0098  0.0729 -0.0566
    1W        W51041  20.447  22.225   8.242 -0.2492  0.0146 -0.1153
    1W        W51042  16.147  21.426   6.702  0.1904  0.0193  0.4789
    1W        W51043   2.329  23.115   1.025 -0.0874  0.1209 -0.2750
    1W        W51044  11.007  12.253   1.886 -0.0608 -0.1418  0.1595
    1W        W51045  28.722   1.028   8.566 -0.3262 -0.1086  0.0330
    1W        W51046   3.847  29.636   8.332 -0.1815 -0.0383  0.1159
    1W        W51047  10.150  24.789   6.151  0.1009 -0.2341 -0.0019
    1W        W51048   5.881  12.951   6.656  0.0357  0.1540  0.1781
    1W        W51049   3.072  25.265   8.403  0.2752 -0.2102  0.1169
    1W        W51050  29.345  29.332   5.821 -0.1426  0.0842  0.2075
    1W        W51051   5.708  26.758   6.653  0.1735  0.0338 -0.0807
    1W        W51052  27.131  20.485   0.175 -0.0335 -0.1831  0.2324
    1W        W51053  22.104   7.013   0.260  0.0043 -0.1011  0.1383
    1W        W51054  29.095   8.932   9.213  0.2819 -0.2889  0.0522
    1W        W51055  23.814   3.597   9.229 -0.1792  0.3857 -0.1050
    1W        W51056   5.393   2.658   7.858  0.0747  0.2171  0.0410
    1W        W51057  23.712  20.522   1.025  0.0373  0.0207  0.1088
    1W        W51058   3.692   5.395   1.003 -0.1202  0.1409  0.1535
    1W        W51059  13.711  12.191   9.366 -0.1121  0.2283  0.1386
    1W        W51060   5.619   1.653   9.207 -0.1108 -0.4549 -0.1402
    1W        W51061  14.318  23.334   0.127 -0.0098 -0.2368 -0.2345
    1W        W51062   2.268  20.110   6.227  0.0222 -0.2238 -0.0103
    1W        W51063  21.751   1.609   0.290  0.0099  0.2355  0.1626
    1W        W51064   3.638  14.687   1.280  0.1752  0.0867  0.2134
    1W        W51065   2.400  26.454   6.332  0.1811 -0.0633 -0.0576
    1W        W51066  16.947  27.735   7.950  0.1492  0.0377  0.4361
    1W        W51067   3.544   1.241   0.072  0.0881  0.2595 -0.2250
    1W        W51068  27.722  25.860   1.621 -0.0363 -0.0521  0.0183
    1W        W51069   6.799  13.930   7.199 -0.1988 -0.0742  0.0931
    1W        W51070  29.547  11.101   0.898  0.4167 -0.0921  0.3306
    1W        W51071   3.941  10.456   0.167 -0.2741  0.0857 -0.3563
    1W        W51072  25.819   8.283   8.225 -0.1752 -0.1710 -0.1197
    1W        W51073  20.379  24.425   2.508 -0.2549  0.3551  0.1658
    1W        W51074   6.143   8.694   0.865 -0.0093 -0.0889  0.5397
    1W        W51075   7.374   2.308   0.136 -0.0593 -0.4704  0.0593
    1W        W51076  29.539   1.250   9.208  0.2516  0.1556  0.2266
    1W        W51077  29.529  26.243   1.939  0.2193  0.0991  0.2081
    1W        W51078  25.324  10.839   8.680  0.2244 -0.2001 -0.0655
    1W        W51079   6.476   1.972   9.165  0.0045 -0.2582  0.1356
    1W        W51080   3.592  15.998   2.438 -0.0172 -0.2854  0.1914
    1W        W51081  18.173  12.401   0.518  0.0947  0.1030 -0.0961
    1W        W51082   3.921  11.848   7.073 -0.0666  0.1803  0.1664
    1W        W51083  20.820  13.941   2.075  0.1825  0.1916  0.1160
    1W        W51084   3.116  21.448   8.476  0.1810 -0.0852 -0.0505
    1W        W51085  18.220   5.014   0.711  0.0150  0.0346  0.1039
    1W        W51086   0.792   9.889   6.334 -0.1840 -0.1316 -0.3215
    1W        W51087  26.350  29.775   1.844 -0.2132 -0.0018 -0.1687
    1W        W51088   1.130   6.302   8.590  0.2246  0.1579 -0.0011
    1W        W51089  26.540  29.025   8.343  0.0735 -0.0737 -0.3326
    1W        W51090  14.302   8.635   2.140 -0.3151 -0.2079  0.5070
    1W        W51091  20.584   1.012   2.307 -0.1864  0.2048  0.4517
    1W        W51092  27.551   6.227   8.586  0.0294 -0.0387  0.0462
    1W        W51093  10.982  12.311   0.906  0.0890  0.1291 -0.0265
    1W        W51094  17.831   2.734   3.211 -0.3659 -0.1402  0.3182
    1W        W51095  16.077  28.721   6.787  0.2205 -0.0883 -0.1114
    1W        W51096  18.143  11.147   2.313  0.0605  0.0491  0.0798
    1W        W51097  19.373   7.000   7.883  0.1157  0.1169 -0.0220
    1W        W51098  10.476   0.538   7.241 -0.0042  0.1898 -0.1856
    1W        W51099  16.718  25.554   6.632  0.0027 -0.3188 -0.2827
    1W        W51100  12.882   8.219   8.325 -0.2917 -0.4930  0.2668
    1W        W51101  27.818   4.661   1.075 -0.0930 -0.1903  0.0153
    1W        W51102  24.385   3.960   1.651 -0.0279  0.0287 -0.1609
    1W        W51103   7.292   5.866   1.137  0.0218 -0.2830 -0.0045
    1W        W51104   0.533  17.312   8.314  0.0342  0.0107 -0.1240
    1W        W51105   3.830  21.979   6.643  0.0777  0.2461  0.0948
    1W        W51106   4.350  23.032   1.251  0.0227  0.0697 -0.1021
    1W        W51107  28.442   4.140   7.683  0.0808 -0.0531 -0.0255
    1W        W51108  28.082  18.363   6.409  0.0990  0.0376  0.1397
    1W        W51109  13.233   0.572   3.300  0.1197  0.4119  0.1604
    1W        W51110  27.729  10.180   9.499 -0.3361  0.0276 -0.2489
    1W        W51111  20.068  23.320   8.768 -0.1481  0.1422 -0.0287
    1W        W51112   7.337   1.586   8.832  0.0001  0.0422  0.4937
    1W        W51113  14.057  10.950   2.414  0.0564 -0.3319  0.2476
    1W        W51114  29.562   1.449   8.697 -0.2090  0.0695  0.3640
    1W        W51115  27.990  20.205   2.579 -0.2153  0.3118 -0.1327
    1W        W51116  12.185  19.062   1.678  0.0617 -0.2016  0.2685
    1W        W51117  25.660  13.688   8.054 -0.0026 -0.0200 -0.0516
    1W        W51118  22.738   7.801   0.768  0.3355 -0.1375  0.0818
    1W        W51119  28.618  17.888   7.074  0.0986 -0.5572 -0.0267
    1W        W51120  21.661  25.276   7.542  0.0900 -0.0514  0.3594
    1W        W51121   5.309  18.201   6.401 -0.3320  0.0732  0.1269
    1W        W51122  20.059  16.332   7.482 -0.0962  0.3028  0.0395
    1W        W51123  16.591  22.733   7.237  0.1669  0.3089 -0.3048
    1W        W51124  15.432   6.162   2.013 -0.0770  0.0664 -0.4235
    1W        W51125  27.452  23.780   0.532  0.1785 -0.0772 -0.1468
    1W        W51126  25.445  23.347   0.850  0.0794 -0.1813  0.0414
    1W        W51127   6.037  23.307   6.480  0.1011  0.1680 -0.2270
    1W        W51128  26.269  24.050   1.760  0.0916 -0.2508  0.0149
    1W        W51129  14.864   9.321   2.346 -0.0207  0.3749 -0.0167
    1W        W51130  20.458  10.378   8.530 -0.1254  0.0384  0.3832
    1W        W51131  10.318  13.537   7.668 -0.1856  0.0447 -0.2377
    1W        W51132  23.241  21.623   2.464 -0.0467 -0.1991 -0.0284
    1W        W51133  29.182   5.538   0.171  0.2360 -0.2065  0.0343
    1W        W51134   4.245   8.422   1.664 -0.2755  0.0046  0.0148
    1W        W51135   4.680   8.168   1.818 -0.1184  0.2610  0.3333
    1W        W51136   6.033   7.436   7.736 -0.0214 -0.0476 -0.4635
    1W        W51137   7.289  29.506   7.771  0.1297  0.2178  0.0503
    1W        W51138  13.848  16.745   8.026  0.4988  0.0462 -0.0010
    1W        W51139   8.201  13.848   6.887 -0.0292 -0.2019  0.0990
    1W        W51140  12.124   0.548   2.890  0.0206  0.1828  0.0791
    1W        W51141  17.474   6.792   2.925  0.1698 -0.1992 -0.1386
    1W        W51142   7.520  27.879   6.108 -0.0308 -0.0343  0.4486
    1W        W51143   2.159   0.552   7.296 -0.3463  0.1809 -0.0327
    1W        W51144  21.037   2.620   3.614  0.0619 -0.0869  0.2528
    1W        W51145  29.787   0.672   1.069 -0.0825  0.0204 -0.0231
    1W        W51146  23.834  14.035   9.360  0.2719 -0.2902  0.3529
    1W        W51147   1.920  17.635   9.180 -0.0427 -0.4756  0.1260
    1W        W51148   0.030  16.160   0.146  0.0829  0.0180 -0.0536
    1W        W51149  13.184  14.962   8.798 -0.3413  0.1987 -0.1288
    1W        W51150  13.100  20.846   6.730  0.2694 -0.1964 -0.2119
    1W        W51151  16.922   9.974   1.536 -0.1354  0.0175 -0.0048
    1W        W51152  25.095  28.151   2.884 -0.1130 -0.1281 -0.3754
    1W        W51153   5.912   2.800   7.740  0.1106  0.2843  0.0543
    1W        W51154  18.201  12.147   7.521 -0.0305 -0.2955  0.0650
    1W        W51155  25.741  11.877   9.495  0.0189  0.0103 -0.1544
    1W        W51156   5.855   0.135   6.450 -0.1109 -0.3156  0.2952
    1W        W51157  18.590   0.164   9.237 -0.0925 -0.0331  0.0459
    1W        W51158   0.489  16.490   6.888  0.2367 -0.0111  0.2727
    1W        W51159  10.385  12.194   7.665  0.0685  0.1812  0.0353
    1W        W51160  21.671   0.405   1.403 -0.0997 -0.3527  0.1034
    1W        W51161  25.583  23.135   6.917 -0.3027 -0.0967  0.2690
    1W        W51162  26.507  18.318   8.246  0.2627 -0.1767 -0.0864
    1W        W51163   5.422  25.059   8.695  0.1584 -0.0506  0.1501
    1W        W51164  24.797   8.991   0.135 -0.1610 -0.3879  0.1512
    1W        W51165   2.609  21.392   1.617  0.1783 -0.1063 -0.1704
    1W        W51166  27.628   8.917   7.816 -0.3926  0.0576 -0.0405
    1W        W51167  17.136  23.074   0.374 -0.0111 -0.0470 -0.0862
    1W        W51168   5.722   7.883   0.484 -0.0065  0.0764  0.1477
    1W        W51169  23.936  10.644   9.090  0.1031 -0.2422 -0.2032
    1W        W51170   7.597   0.946   7.468 -0.0001 -0.2442  0.0358
    1W        W51171  18.919  27.171   7.603 -0.2718 -0.0887  0.3148
    1W        W51172   5.144   8.078   8.544 -0.1249  0.1196 -0.1737
    1W        W51173  16.807  18.378   1.373  0.0907  0.1508  0.0801
    1W        W51174  28.681   7.835   2.318  0.3235 -0.1046 -0.0094
    1W        W51175  26.320  10.588   0.521  0.1842 -0.0949  0.0334
    1W        W51176  20.292  20.429   7.002 -0.1455  0.1546 -0.0172
    1W        W51177  29.074  14.026   1.624  0.0918  0.1269 -0.0100
    1W        W51178  26.319   0.785   7.691  0.2194 -0.0034  0.0436
    1W        W51179   5.345  23.705   7.158 -0.0934 -0.1821  0.0817
    1W        W51180  23.347   4.278   1.643 -0.0072  0.0286  0.1756
    1W        W51181  20.011  25.652   7.288 -0.0078 -0.1123  0.1519
    1W        W51182  19.827   3.273   8.937  0.1447  0.0861 -0.1006
    1W        W51183  25.926  14.509   7.809  0.2828  0.0862 -0.2750
    1W        W51184   5.261   7.654   0.732  0.3170 -0.2783  0.0997
    1W        W51185  22.517  20.152   8.341 -0.0730 -0.0333  0.2740
    1W        W51186  27.721  26.821   6.181  0.1016 -0.1524  0.1693
    1W        W51187   8.936  19.142   6.545  0.3188  0.1630  0.2242
    1W        W51188  14.229  19.711   7.991 -0.2339 -0.2535 -0.2369
    1W        W51189  12.948  21.729   8.183  0.1943 -0.1086 -0.0961
    1W        W51190   3.933  23.342   7.859  0.1600 -0.2164 -0.4425
    1W        W51191  23.892  15.776   7.553 -0.0728  0.0331 -0.0770
    1W        W51192  16.834  13.978   1.246  0.2618 -0.3117  0.2487
    1W        W51193   5.314  28.660   9.342 -0.2549  0.0608  0.2253
    1W        W51194   9.727   8.169   0.584  0.1126 -0.1452 -0.2164
    1W        W51195  27.241   8.488   1.185 -0.2181  0.1430  0.0702
    1W        W51196  27.379   4.676   2.178  0.0449 -0.1835  0.0025
    1W        W51197   7.521  19.474   0.273  0.2938  0.0869 -0.2423
    1W        W51198  10.526  29.026   9.440 -0.3023 -0.1618  0.0799
    1W        W51199  16.742  29.162   9.211 -0.2121 -0.2506  0.4530
    1W        W51200  20.253  22.904   0.140 -0.0545  0.2274  0.0545
    1W        W51201  29.845   2.030   7.384 -0.1427 -0.1873  0.0224
    1W        W51202  11.045   5.651   1.207  0.3448 -0.3122 -0.1957
    1W        W51203   1.618   9.357   1.556 -0.1246  0.0428  0.1446
    1W        W51204  17.458   2.863   1.980  0.1333 -0.0256  0.1262
    1W        W51205   4.911  27.589   5.376 -0.1867  0.1095 -0.2549
    1W        W51206   7.204  16.852   7.962  0.0828  0.0955 -0.0037
    1W        W51207  15.067   0.628   0.405  0.0019 -0.2780 -0.0610
    1W        W51208   4.123  11.038   6.630  0.0544  0.0172  0.1812
    1W        W51209   3.643  19.959   6.491 -0.1955 -0.0508 -0.2097
    1W        W51210  17.327   8.699   1.888  0.1988 -0.0961  0.1162
    1W        W51211   1.050  12.852   1.427 -0.0800 -0.0576 -0.0991
    1W        W51212  16.248  28.807   7.732  0.0027 -0.2601  0.0568
    1W        W51213  23.933  16.219   7.821  0.0736 -0.2406  0.0847
    1W        W51214   6.075  17.598   8.899  0.0344  0.0280 -0.1497
    1W        W51215   8.195  11.966   8.933  0.0527  0.0612  0.1019
    1W        W51216   8.518  26.664   2.229 -0.0910  0.0236  0.0696
    1W        W51217   6.729  28.721   7.742 -0.2702 -0.1886  0.0042
    1W        W51218  15.636  28.635   3.349  0.0898 -0.2663 -0.1425
    1W        W51219  27.485  25.403   0.915  0.0173  0.2583  0.0783
    1W        W51220  25.421  14.782   0.733 -0.1666 -0.2880 -0.1604
    1W        W51221  10.106   8.021   0.909  0.0847  0.2608 -0.3873
    1W        W51222  13.750   4.689   2.700  0.0641 -0.1286  0.1650
    1W        W51223  13.818   1.033   1.456 -0.0358  0.2346 -0.0456
    1W        W51224   0.958   2.027   0.088  0.2601  0.2427  0.1090
    1W        W51225  11.383  13.499   0.623 -0.0331  0.1331 -0.2285
    1W        W51226  28.874  13.591   3.053 -0.0836 -0.0927  0.0084
    1W        W51227  17.106  25.808   8.280 -0.0781 -0.0886  0.2262
    1W        W51228   9.738   2.406   2.908  0.0912 -0.2185  0.0802
    1W        W51229  11.250  22.561   5.818 -0.1736 -0.1521 -0.4532
    1W        W51230  26.882   1.586   7.557 -0.1126 -0.5196 -0.0014
    1W        W51231   4.913   6.772   1.916  0.2042 -0.0393  0.1266
    1W        W51232  16.128  10.692   8.232 -0.2386 -0.1371  0.2233
    1W        W51233   9.167  16.033   7.740 -0.0051  0.1898  0.2668
    1W        W51234   0.525   4.702   8.201  0.1345 -0.0957 -0.0037
    1W        W51235  15.949  23.332   9.484 -0.0748 -0.1005 -0.1827
    1W        W51236  13.543  19.686   6.873  0.2833 -0.2047  0.1324
    1W        W51237   5.756  23.208   5.465  0.1424 -0.1099  0.2108
    1W        W51238   2.345   9.035   1.274  0.1087  0.3880  0.0452
    1W        W51239  18.630  15.374   1.617  0.1468  0.2736  0.2121
    1W        W51240  19.435  18.336   6.252 -0.1700 -0.0761  0.3609
    1W        W51241  18.161  20.880   8.109  0.2766 -0.2922  0.2029
    1W        W51242  18.181  27.231   0.607  0.1365  0.1021 -0.3596
    1W        W51243  18.608  26.423   7.317 -0.1432  0.1474 -0.0091
    1W        W51244  22.360   5.497   3.306  0.1629  0.0613 -0.0798
    1W        W51245  13.436   1.364   4.384  0.1864  0.1292 -0.0886
    1W        W51246   0.023   4.448   8.816 -0.0509 -0.3147  0.2163
    1W        W51247  26.428  19.438   1.156 -0.3322  0.3565 -0.1135
    1W        W51248  28.817  16.641   8.019  0.0683 -0.0469 -0.0685
    1W        W51249  28.460  13.818   2.765 -0.1649  0.0804  0.0786
    1W        W51250  14.757  21.004   7.471 -0.0441 -0.3128 -0.1113
    1W        W51251  12.584  17.488   8.623  0.5846  0.0732  0.2707
    1W        W51252  22.328  20.852   9.027 -0.1778 -0.2253  0.0635
    1W        W51253   5.610  14.034   3.217 -0.1763 -0.0327  0.2899
    1W        W51254  10.868   4.421   3.339 -0.1501  0.2421 -0.1457
    1W        W51255  11.135   1.754   2.740 -0.0398  0.0293 -0.0842
    1W        W51256  26.082   6.521   6.585  0.2370 -0.0914 -0.2452
    1W        W51257   7.066  25.629   6.693 -0.0810  0.5283 -0.0835
    1W        W51258  18.347   6.259   9.265  0.2338  0.2271 -0.1645
    1W        W51259  16.548  28.701   9.037 -0.1359 -0.0209 -0.2800
    1W        W51260  23.080   1.546   1.458  0.5342 -0.0014  0.1797
    1W        W51261   3.967  18.837   3.278  0.0376 -0.2857 -0.0116
    1W        W51262   0.500  20.948   7.009 -0.2112  0.5812  0.1280
    1W        W51263  25.604   1.487   7.781  0.0277  0.0575 -0.0783
    1W        W51264   8.259   9.119   6.837 -0.3211 -0.2198 -0.2986
    1W        W51265  20.915  28.682   1.481 -0.0237 -0.0033  0.0329
    1W        W51266  12.022  23.707   1.500 -0.3689  0.3164 -0.1557
    1W        W51267  12.357  10.799   0.283 -0.0082  0.0024 -0.1233
    1W        W51268  28.356   3.043   1.016 -0.2686  0.1089 -0.0289
    1W        W51269  11.078   6.782   8.642  0.0477 -0.0467  0.3028
    1W        W51270  19.293  25.927   8.925  0.2028  0.0787 -0.1894
    1W        W51271  22.543  25.445   7.179 -0.0873  0.0349 -0.1260
    1W        W51272   6.819  20.236   8.263  0.0841  0.1984 -0.0994
    1W        W51273  10.721  20.772   8.523  0.1613  0.2559 -0.1406
    1W        W51274  23.824   9.412   7.580  0.2914 -0.5207 -0.0462
    1W        W51275   5.817  17.956   7.485  0.4362  0.0125  0.0908
    1W        W51276  16.795  12.434   0.020 -0.2021 -0.4818 -0.2019
    1W        W51277   7.240   1.997   0.592  0.1680 -0.2747 -0.0078
    1W        W51278  29.396  15.050   7.168 -0.1496  0.2077  0.1662
    1W        W51279  19.277  22.575   1.726 -0.0924  0.2447  0.0117
    1W        W51280  26.393  23.289   1.294  0.2047 -0.3941  0.0229
    1W        W51281  20.398  21.662   1.516 -0.0132 -0.1116  0.1290
    1W        W51282  10.486   0.497   1.378  0.0511 -0.2630  0.1564
    1W        W51283  18.185  20.658   6.664 -0.0555 -0.0753 -0.0063
    1W        W51284  15.772   5.854   1.773  0.0071 -0.2486  0.3802
    1W        W51285  13.979  18.915   8.413 -0.2728 -0.2190 -0.2723
    1W        W51286  19.379  20.913   9.377 -0.2513  0.0219  0.0471
    1W        W51287  21.204  25.845   0.824 -0.0091 -0.0624  0.2670
    1W        W51288  11.973  27.263   7.828  0.1757  0.0000 -0.1975
    1W        W51289  16.238   7.262   0.314  0.0694 -0.1148  0.0790
    1W        W51290   7.275  13.473   0.319 -0.0963 -0.2193 -0.1989
    1W        W51291  14.022   6.736   3.259 -0.1979  0.2913 -0.2161
    1W        W51292   5.213  18.140   0.310 -0.3457  0.2019  0.4656
    1W        W51293   5.163   5.909   2.022 -0.4340 -0.1570  0.1721
    1W        W51294   6.106   3.471   2.096 -0.3290 -0.2284  0.0694
    1W        W51295   7.231   5.737   9.133 -0.1515 -0.3384  0.5768
    1W        W51296   9.706  27.723   9.372  0.2012 -0.2391  0.1324
    1W        W51297  11.961   7.562   7.747 -0.1443 -0.4157 -0.0587
    1W        W51298  12.662   3.512   8.069 -0.0462  0.1881  0.0927
    1W        W51299   8.649  18.087   1.187  0.1504 -0.0773  0.2707
    1W        W51300   1.250   9.321   7.043 -0.0403  0.0190  0.1864
    1W        W51301  15.414  21.152   4.901  0.2412  0.3382  0.3296
    1W        W51302  12.508  25.240   7.944  0.3321 -0.1255  0.2216
    1W        W51303   7.126   6.453   6.425  0.0526  0.2222  0.0890
    1W        W51304  14.120  21.902   9.141 -0.0700  0.0690 -0.1326
    1W        W51305   8.423   2.490   9.388 -0.0894 -0.0425  0.0417
    1W        W51306   2.855  28.387   7.605 -0.1368 -0.5562 -0.2208
    1W        W51307   6.682  11.582   0.419 -0.1893  0.1217  0.1895
    1W        W51308   6.909   3.847   2.099  0.1177 -0.0694  0.0632
    1W        W51309  11.906  12.632   0.226 -0.1540  0.0084  0.3089
    1W        W51310  24.926   9.858   9.367  0.0160 -0.1364  0.1058
    1W        W51311  25.335  20.966   9.253  0.3303 -0.0063 -0.2378
    1W        W51312  13.063  12.109   2.741 -0.0248 -0.2022  0.1400
    1W        W51313  28.055   5.308   8.034  0.2019 -0.2093  0.0543
    1W        W51314  14.528  21.948   7.536  0.0583  0.4733 -0.4332
    1W        W51315   2.390  10.519   6.195 -0.0927 -0.1713  0.1541
    1W        W51316  27.219   0.847   1.288  0.2458 -0.1515  0.1313
    1W        W51317   2.793   0.311   9.463  0.0360 -0.0062  0.0414
    1W        W51318   7.400  27.095   1.431  0.3001 -0.1093 -0.3294
    1W        W51319   2.636  18.630   2.134 -0.0616  0.1083  0.0149
    1W        W51320   4.281   3.882   0.271 -0.2401 -0.4023 -0.1177
    1W        W51321   0.774  22.849   9.054  0.0832 -0.2081 -0.0740
    1W        W51322   6.359  27.153   1.082 -0.0244 -0.0129 -0.0124
    1W        W51323   7.203   3.612   2.467  0.3263 -0.1231 -0.1508
    1W        W51324  25.740   4.625   7.223 -0.1696 -0.0646 -0.0115
    1W        W51325   8.604  15.564   2.326 -0.0843  0.0665 -0.2127
    1W        W51326  22.965  27.701   9.456 -0.1437 -0.1524  0.4091
    1W        W51327   8.368  21.956   5.866  0.2944 -0.2188 -0.1634
    1W        W51328   4.913  13.534   1.766  0.1817  0.0586  0.2202
    1W        W51329   0.004  22.510   2.272  0.2418  0.0505  0.0931
    1W        W51330  20.625  11.136   8.281  0.0263 -0.1490 -0.2499
    1W        W51331   9.683  18.031   8.560 -0.0139 -0.2044 -0.0055
    1W        W51332   9.147  21.605   6.850  0.3624  0.0773 -0.0115
    1W        W51333   7.652   4.182   1.428  0.1591 -0.0190 -0.1126
    1W        W51334  10.178   5.135   1.108  0.1931 -0.0987  0.0892
    1W        W51335  13.293  18.624   8.989 -0.0479 -0.0251 -0.4309
    1W        W51336  12.127  26.361   6.175  0.2500 -0.0214  0.0331
    1W        W51337   6.232  22.071   2.324 -0.1761  0.0326  0.5580
    1W        W51338  19.013  25.918   8.384 -0.2458 -0.0333 -0.2163
    1W        W51339  11.186  24.565   6.480 -0.3578 -0.1842 -0.0100
    1W        W51340  12.136  10.552   7.941 -0.0159  0.0690  0.2038
    1W        W51341  15.855  10.097   9.498 -0.0195 -0.0768 -0.3372
    1W        W51342  15.063   3.008   2.131  0.0426  0.0812 -0.0455
    1W        W51343  16.768   0.339   2.345 -0.0399  0.0670 -0.1542
    1W        W51344   9.958   6.320   3.318  0.1689 -0.0635  0.1329
    1W        W51345   5.293  27.680   9.118  0.0951 -0.1718  0.2742
    1W        W51346  12.696  16.116   1.739  0.4377 -0.2898 -0.2214
    1W        W51347  28.827   6.717   7.814  0.2533 -0.0700  0.2177
    1W        W51348  13.770  11.457   9.002 -0.3297  0.1618  0.1423
    1W        W51349  15.281   4.221   9.428  0.0368 -0.2032  0.0944
    1W        W51350  11.920  26.653   6.624 -0.0655 -0.1707  0.1154
    1W        W51351   8.114  24.224   1.547 -0.2920 -0.0534  0.1595
    1W        W51352  25.841  28.794   2.588 -0.1488 -0.1666  0.1172
    1W        W51353  24.988  16.710   7.110  0.3529  0.1666  0.1529
    1W        W51354  12.945   8.591   8.030 -0.1550  0.1419 -0.0821
    1W        W51355  24.010  25.537   0.815  0.0998 -0.0739 -0.0889
    1W        W51356   5.734  16.287   3.372  0.0110 -0.1443  0.2545
    1W        W51357   0.315   8.698   6.589  0.0955 -0.1250 -0.0639
    1W        W51358  27.327   8.332   1.668 -0.0515  0.2632  0.0625
    1W        W51359  26.134  13.989   6.746 -0.0341 -0.3555 -0.0836
    1W        W51360  18.257  15.729   8.309 -0.3003 -0.0886 -0.1547
    1W        W51361  29.572  16.266   2.322 -0.2446 -0.1760  0.2054
    1W        W51362   6.064  17.825   8.447  0.0278  0.1365  0.2209
    1W        W51363  25.983   8.027   8.889 -0.2607 -0.2282  0.1042
    1W        W51364  14.045  28.718   2.167  0.1944  0.0002  0.2200
    1W        W51365  14.977  15.314   6.550 -0.0339  0.0102  0.2009
    1W        W51366  20.872  13.384   7.754  0.2377 -0.0108  0.0943
    1W        W51367   6.195  27.238   7.886 -0.0224  0.2046 -0.1064
    1W        W51368  27.301  17.824   2.522  0.3494  0.0607 -0.0787
    1W        W51369   5.980  26.482   7.267  0.1921 -0.0120  0.0522
    1W        W51370  20.245  15.022   1.264 -0.1136  0.0145 -0.0007
    1W        W51371  16.741  14.339   1.786 -0.1625 -0.0760  0.0598
    1W        W51372   2.217  14.284   8.277  0.1803 -0.1039  0.0099
    1W        W51373   7.948   5.193   3.087 -0.1320 -0.0793  0.0065
    1W        W51374  13.216   8.795   3.576 -0.1710  0.0241  0.0652
    1W        W51375  15.360  11.409   8.590  0.0309  0.0433 -0.3399
    1W        W51376   1.113  18.859   9.493  0.1190  0.1944 -0.2586
    1W        W51377  24.958  29.274   8.540  0.1792  0.1816 -0.0639
    1W        W51378   5.902  23.865   8.028  0.2007  0.2163  0.3112
    1W        W51379  24.412   0.143   1.664  0.1419  0.0270 -0.0486
    1W        W51380  13.545  27.965   8.185 -0.0721  0.0642  0.3601
    1W        W51381   5.545  19.221   1.762 -0.2807  0.1056  0.3986
    1W        W51382   1.455   6.565   9.067  0.1593  0.1315  0.1585
    1W        W51383  23.837   9.482   2.559  0.0146  0.1262  0.0318
    1W        W51384  24.213  25.692   2.557 -0.0182  0.0473  0.2580
    1W        W51385   6.036   5.467   6.595  0.0360 -0.0135  0.2382
    1W        W51386   1.990  22.341   2.248  0.0131 -0.0189 -0.3997
    1W        W51387   8.866   2.280   9.052 -0.0848  0.0488 -0.1450
    1W        W51388   1.610  26.449   7.569  0.0851 -0.2466 -0.0796
    1W        W51389  25.485  23.047   0.057  0.2349  0.0176  0.0270
    1W        W51390  11.606  28.888   8.862  0.0730 -0.1269 -0.0511
    1W        W51391  15.678  26.671   8.823  0.4783  0.0753 -0.1478
    1W        W51392  21.772  20.324   2.596 -0.1312  0.0227 -0.1894
    1W        W51393  29.302  26.327   9.079 -0.0623 -0.1365  0.0056
    1W        W51394  11.754   5.659   2.611 -0.2312 -0.2274 -0.0548
    1W        W51395   2.741  25.424   7.454 -0.0247 -0.3622 -0.2878
    1W        W51396  29.598  18.695   2.871  0.1242 -0.1412 -0.1332
    1W        W51397  20.186  17.605   8.872 -0.0266  0.0526  0.0974
    1W        W51398  21.134   3.966   1.506 -0.1050  0.2379  0.1711
    1W        W51399   4.925  20.009   1.558 -0.0184  0.0916  0.3143
    1W        W51400   8.016   0.366   8.769  0.0565  0.0087 -0.1131
    1W        W51401  18.420  27.645   1.969  0.0357  0.0060 -0.0925
    1W        W51402   7.127  29.489   2.322  0.1749 -0.2141 -0.0238
    1W        W51403   7.621   1.015   1.114 -0.1174 -0.0750 -0.0295
    1W        W51404   7.150   4.962   7.993 -0.0574 -0.1245 -0.1682
    1W        W51405   8.317   6.136   7.131 -0.1396  0.0790 -0.0036
    1W        W51406   8.364  29.228   8.014  0.0968 -0.2709 -0.1032
    1W        W51407  26.927  20.018   0.098 -0.1269 -0.0931 -0.0174
    1W        W51408   1.741  11.124   2.181  0.1745  0.0047 -0.0886
    1W        W51409  19.144  27.817   2.325 -0.1807  0.1020 -0.1805
    1W        W51410   1.580   3.220   8.811  0.0319  0.5106 -0.4512
    1W        W51411   3.185   0.669   9.054  0.2484 -0.2450 -0.1823
    1W        W51412  25.465   0.018   0.402 -0.1049 -0.1386 -0.1163
    1W        W51413  25.579   0.835   4.088  0.0359 -0.4304  0.2945
    1W        W51414   4.617  22.589   8.787  0.0656 -0.1561  0.2349
    1W        W51415  14.260  21.370   9.163 -0.0377  0.0356 -0.0511
    1W        W51416   1.659   1.494   7.095 -0.3534 -0.1749  0.1907
    1W        W51417  28.728  10.768   0.646  0.1973 -0.1785  0.1925
    1W        W51418  10.421   3.773   3.251  0.0337 -0.2512 -0.1703
    1W        W51419  29.666  14.495   2.872  0.0872  0.0303  0.0471
    1W        W51420  27.199  24.416   6.284  0.2321 -0.0232  0.3008
    1W        W51421  25.589  25.320   8.528  0.0239 -0.0549 -0.0532
    1W        W51422  11.267  28.028   1.508  0.1743 -0.0009 -0.1876
    1W        W51423  13.299   4.869   4.109  0.0715  0.0455 -0.0401
    1W        W51424   5.868  22.555   1.031 -0.1518  0.2076  0.0650
    1W        W51425  16.037   3.982   3.301  0.1528  0.0970  0.0034
    1W        W51426   3.477  16.829   7.274 -0.0497  0.2375 -0.1209
    1W        W51427  13.143   1.566   8.602 -0.1220 -0.1265 -0.2324
    1W        W51428  11.628  18.085   8.520  0.0621 -0.3004  0.1632
    1W        W51429   4.973  24.690   6.281 -0.0284 -0.0881 -0.0112
    1W        W51430  17.707  19.365   9.368 -0.0562 -0.0867  0.2523
    1W        W51431  17.912   6.642   3.088 -0.2362  0.1029 -0.1359
    1W        W51432  27.030  27.978   6.369 -0.0192 -0.3338  0.1226
    1W        W51433   8.306   8.826   3.239  0.1522  0.3026  0.2621
    1W        W51434   0.614  29.782   1.204 -0.2550  0.1587  0.1163
    1W        W51435  10.137  19.487   7.637 -0.0358  0.0752 -0.1080
    1W        W51436  10.442  21.719   8.861  0.0512  0.1641 -0.0170
    1W        W51437  17.700  27.059   8.516  0.2899 -0.1210  0.1797
    1W        W51438  21.066  21.964   7.872 -0.1410 -0.1995  0.0395
    1W        W51439  10.630  21.639   6.548  0.1152  0.0742 -0.2840
    1W        W51440   3.669  18.909   6.575  0.1496  0.0806  0.2272
    1W        W51441  15.444  12.283   8.030 -0.0011 -0.0257  0.3578
    1W        W51442  26.093  21.487   7.186 -0.1256 -0.1705 -0.2610
    1W        W51443  12.320  10.977   9.091  0.2256  0.3664  0.1823
    1W        W51444  15.076   6.561   0.903 -0.2057  0.0709 -0.1170
    1W        W51445  18.782   5.522   2.135  0.0714 -0.0736  0.2382
    1W        W51446   8.910  18.300   7.041 -0.2005 -0.1861  0.0011
    1W        W51447  13.657  18.785   7.494 -0.5770 -0.0428 -0.2908
    1W        W51448  26.415  10.615   2.134 -0.1001  0.0197  0.0333
    1W        W51449   6.742   1.370   0.435  0.2408 -0.2546  0.2292
    1W        W51450  21.858  17.295   9.242 -0.0815  0.1476 -0.1057
    1W        W51451   1.269   6.449   7.263 -0.0077  0.2057  0.0282
    1W        W51452   8.632   6.707   0.099 -0.1710  0.1877  0.1628
    1W        W51453   5.659  24.545   6.813 -0.0905 -0.3918 -0.3141
    1W        W51454  21.484  10.702   0.895 -0.0545  0.2650  0.0996
    1W        W51455  13.998  18.966   1.685  0.2047 -0.0842 -0.0723
    1W        W51456  13.954   6.034   2.685 -0.3182 -0.3597  0.3103
    1W        W51457   1.033  29.210   0.024 -0.0178  0.1039  0.0000
    1W        W51458  18.699  28.907   9.185  0.0547  0.0849  0.0657
    1W        W51459  29.698  18.851   0.653 -0.1600 -0.0768 -0.1930
    1W        W51460   7.988   3.181   2.512 -0.0893  0.2284 -0.2783
    1W        W51461  20.368  27.018   0.014 -0.2145  0.1391 -0.3424
    1W        W51462  16.071  22.412   6.477  0.1306 -0.0105  0.0064
    1W        W51463   8.372  17.090   1.775  0.2782 -0.3226 -0.1284
    1W        W51464   9.140   3.375   9.216 -0.3176 -0.0637  0.1419
    1W        W51465   8.103  13.799   8.099  0.0413 -0.0626 -0.0355
    1W        W51466  29.794   8.465   7.519 -0.0868  0.0123  0.0993
    1W        W51467   7.576  14.549   8.388 -0.2120 -0.2019  0.5302
    1W        W51468   0.280   0.207   1.770 -0.4179 -0.0138  0.1903
    1W        W51469   4.410   7.278   0.519  0.1479 -0.1665 -0.1442
    1W        W51470   6.011   5.186   2.114  0.3956 -0.2135  0.1922
    1W        W51471   8.769  18.995   0.039  0.2090 -0.0921  0.0020
    1W        W51472  26.656   3.665   3.033 -0.0132 -0.2249  0.2960
    1W        W51473  29.225  29.792   2.743  0.0780 -0.0531  0.1565
    1W        W51474  16.266   3.509   0.447 -0.2042 -0.1079 -0.2003
    1W        W51475  22.107   9.378   1.491  0.1513  0.0077  0.3725
    1W        W51476  22.544   3.069   2.448  0.1422 -0.2345 -0.3254
    1W        W51477   0.841  15.778   7.514  0.2525  0.2780 -0.1601
    1W        W51478  20.034  29.164   2.698  0.1157 -0.0207  0.1619
    1W        W51479   0.649  14.945   0.191 -0.0034  0.0196  0.0648
    1W        W51480   2.819  18.469   8.395 -0.0891  0.0135  0.0377
    1W        W51481   5.901   6.393   0.285  0.0119  0.2413 -0.2254
    1W        W51482   5.772  24.909   8.374 -0.2007  0.1970  0.1859
    1W        W51483  24.237  12.122   7.110  0.1799  0.2402  0.0432
    1W        W51484  17.275  21.291   9.244  0.1301 -0.2165 -0.1010
    1W        W51485  25.475   6.725   1.369 -0.3209  0.0810 -0.0084
    1W        W51486  18.496  25.177   7.370 -0.2003 -0.1932 -0.0899
    1W        W51487  10.893  23.112   1.348  0.0738 -0.2611  0.1738
    1W        W51488   6.340   3.907   1.478  0.1825 -0.0117  0.0668
    1W        W51489  16.935   5.790   1.756  0.1238 -0.0485 -0.0432
    1W        W51490  29.829  19.328   1.833  0.0721 -0.1254 -0.0995
    1W        W51491  19.989  20.003   6.908 -0.2571  0.0541 -0.0084
    1W        W51492  25.554   7.250   2.524  0.2197  0.0633  0.0347
    1W        W51493  28.822   2.188   9.425  0.1420 -0.2168  0.0296
    1W        W51494  29.180  10.595   1.612 -0.4004  0.3055  0.1330
    1W        W51495  25.008  27.891   0.369  0.0101  0.1240  0.0027
    1W        W51496  11.781  16.876   0.676 -0.0506 -0.2588 -0.2376
    1W        W51497  15.886   5.591   8.372  0.1522 -0.4639 -0.1458
    1W        W51498  29.409   0.700   6.118 -0.5609  0.3290 -0.0071
    1W        W51499   4.695   2.862   2.177 -0.1019 -0.0540 -0.3260
    1W        W51500  26.979  10.491   7.135 -0.2235 -0.2072 -0.0823
    1W        W51501  13.003  18.352   2.115  0.0385  0.0014  0.1351
    1W        W51502  23.987   7.677   8.393 -0.0993 -0.0825  0.0142
    1W        W51503  28.027  14.677   0.796 -0.1961 -0.0909 -0.1173
    1W        W51504  12.917  19.917   7.890 -0.2760 -0.0779  0.0747
    1W        W51505   2.414  15.594   8.448  0.0161  0.1799 -0.0352
    1W        W51506  16.908   8.544   1.596 -0.2035 -0.1187  0.1959
    1W        W51507  18.693  12.691   8.018 -0.0036 -0.0998  0.0438
    1W        W51508   9.181  19.239   6.075 -0.1631 -0.5114  0.0801
    1W        W51509  27.783  10.769   2.503 -0.0556  0.3239  0.0052
    1W        W51510   7.341  29.336   8.668 -0.1529  0.3195  0.1214
    1W        W51511  26.946  20.858   1.924 -0.3089  0.0679  0.2876
    1W        W51512  14.297   0.196   2.052 -0.0881  0.3195 -0.1026
    1W        W51513  15.632  28.361   2.920 -0.0894 -0.3076 -0.0734
    1W        W51514   4.901  17.880   3.135 -0.0731  0.5336  0.1754
    1W        W51515   7.070   0.206   6.597 -0.1355  0.0369 -0.0053
    1W        W51516   8.566  23.163   8.378  0.1306 -0.0344  0.1571
    1W        W51517   6.522  22.982   5.967  0.1103 -0.2312 -0.0483
    1W        W51518   4.562  29.854   1.026  0.2340 -0.0935 -0.1995
    1W        W51519  28.917  26.784   0.731 -0.1472  0.0068 -0.0090
    1W        W51520  22.526   0.593   8.202 -0.2646 -0.0157  0.2035
    1W        W51521   3.103  25.782   5.699  0.0642 -0.0503 -0.0590
    1W        W51522  10.081  14.155   8.334  0.1650 -0.0785  0.1500
    1W        W51523  13.964  14.267   9.456  0.0853  0.1682 -0.0973
    1W        W51524  24.896  29.066   0.673 -0.1134  0.2194  0.0924
    1W        W51525   2.696  25.998   6.617 -0.0970 -0.1230  0.2371
    1W        W51526  23.074  24.182   1.166 -0.0795  0.0480 -0.1300
    1W        W51527  27.516   8.960   9.371 -0.2615  0.0454  0.2328
    1W        W51528   4.613   9.046   2.134  0.0160  0.0531 -0.0081
    1W        W51529  19.918   3.692   0.276  0.1594 -0.1475 -0.1337
    1W        W51530   4.811  18.086   2.458  0.1374  0.1814  0.1502
    1W        W51531  20.205  16.161   6.941  0.2707  0.0937  0.4667
    1W        W51532   6.325   5.430   9.348 -0.0122  0.0751 -0.2518
    1W        W51533  18.350  20.126   1.120 -0.0026 -0.0490 -0.0359
    1W        W51534  13.833  20.799   7.002 -0.0897  0.4567  0.2436
    1W        W51535   8.249   7.639   7.172 -0.0096 -0.0452 -0.1311
    1W        W51536   6.697  19.705   7.410  0.2033 -0.5023 -0.0299
    1W        W51537  23.095  22.066   2.304  0.0498  0.2377  0.0666
    1W        W51538  25.634  28.843   8.145 -0.0997  0.0600 -0.1173
    1W        W51539  25.356  28.921   1.563 -0.0570 -0.0161 -0.4471
    1W        W51540  11.485   9.888   1.800 -0.2774  0.0052  0.1896
    1W        W51541  27.813  10.434   2.102  0.2661  0.1185  0.1693
    1W        W51542  13.273  29.337   9.524  0.1409  0.1302 -0.3720
    1W        W51543   9.332  14.165   1.767  0.2116  0.2020 -0.2138
    1W        W51544   8.737   0.435   0.126  0.2467 -0.0835 -0.1526
    1W        W51545  28.251  18.187   1.474  0.0910 -0.2822  0.0992
    1W        W51546  11.323  14.851   9.365 -0.2125  0.2914 -0.0993
    1W        W51547  15.798   0.943   2.912  0.1524  0.2234  0.2238
    1W        W51548  24.838  11.229   0.755 -0.0092  0.3149  0.0421
    1W        W51549  10.950   5.407   8.718  0.0243 -0.1439  0.0340
    1W        W51550  10.718  10.664   1.219  0.3080 -0.0143  0.2740
    1W        W51551  23.871   8.730   2.094  0.1088 -0.0110  0.0351
    1W        W51552  26.405  10.500   2.666  0.1482 -0.1418 -0.0556
    1W        W51553  24.008  29.688   1.702 -0.0871  0.3593  0.1349
    1W        W51554  14.913  28.821   7.079  0.0767  0.2804  0.0481
    1W        W51555   2.269  27.904   0.425 -0.0650 -0.2171 -0.3227
    1W        W51556   1.217  24.174   9.185  0.0957 -0.0404  0.0318
    1W        W51557  23.222  29.805   8.917  0.0741 -0.1725  0.3982
    1W        W51558   5.822  26.101   8.473  0.3531 -0.4402  0.2205
    1W        W51559  26.778  28.106   2.960  0.2309  0.0066  0.2333
    1W        W51560   1.447  19.817   7.204  0.1928 -0.1309  0.0255
    1W        W51561   9.651  11.769   1.876 -0.5324 -0.2572  0.0782
    1W        W51562  19.759  23.663   1.011  0.1013  0.0874  0.2045
    1W        W51563   7.114  27.158   7.528 -0.0969  0.0090 -0.0470
    1W        W51564  27.324  14.173   9.137 -0.2080 -0.0366  0.0653
    1W        W51565   8.024   6.987   2.240 -0.2253  0.1301 -0.0516
    1W        W51566   8.040  14.645   0.943  0.0495 -0.1778  0.0562
    1W        W51567   8.994  29.215   9.120  0.1724  0.0454 -0.2155
    1W        W51568  12.590   3.474   1.316  0.3030  0.2372  0.0824
    1W        W51569  20.251  21.607   6.394  0.0401 -0.0962 -0.3680
    1W        W51570  11.390  23.293   6.246  0.0027  0.0877 -0.1346
    1W        W51571   2.070  14.857   8.821  0.0466 -0.2889  0.0813
    1W        W51572  27.571   3.106   2.034 -0.1131 -0.3527  0.4744
    1W        W51573   4.240  17.951   0.567 -0.1985 -0.1526 -0.0578
    1W        W51574  16.163  16.761   1.035 -0.0417  0.1089  0.0979
    1W        W51575  10.657  18.059   2.700  0.0175 -0.1235 -0.0383
    1W        W51576   6.188   5.545   7.449  0.1295 -0.0516 -0.0807
    1W        W51577  27.117  20.197   0.545  0.1326 -0.1359  0.1389
    1W        W51578  15.420  24.507   2.122  0.3384 -0.0123  0.0356
    1W        W51579  27.106  27.917   7.123  0.2514 -0.0582  0.0741
    1W        W51580  13.514  14.131   9.354 -0.3395 -0.1336 -0.1349
    1W        W51581   2.373  10.355   8.824  0.0741 -0.0645  0.0805
    1W        W51582   6.974  17.630   8.891 -0.2283  0.1165  0.1223
    1W        W51583  23.760  11.655   1.687 -0.0381 -0.3005  0.1148
    1W        W51584  13.621   5.898   0.287  0.2564 -0.0519  0.0437
    1W        W51585   8.150  11.552   1.095  0.0691  0.3582  0.0603
    1W        W51586  14.419  18.653   8.472 -0.0948  0.0879 -0.0813
    1W        W51587  16.831  18.344   7.797  0.2144  0.1469  0.0319
    1W        W51588  23.297   4.453   9.407  0.2744  0.2092  0.2178
    1W        W51589  27.944   5.694   2.463 -0.0335  0.1278  0.1797
    1W        W51590  27.865  20.796   1.871  0.4105 -0.1369 -0.4659
    1W        W51591   2.084  18.496   8.813  0.0368  0.2741  0.1609
    1W        W51592  13.473   7.299   1.012  0.1119  0.2322 -0.0902
    1W        W51593  13.299   4.715   1.458 -0.0690 -0.1327  0.1727
    1W        W51594  17.221  18.874   0.932  0.1199  0.1470  0.0027
    1W        W51595  19.395  16.397   8.891 -0.0404 -0.2856 -0.1029
    1W        W51596   0.910   0.805   8.381 -0.0214 -0.2249 -0.1589
    1W        W51597  29.122  13.666   0.968  0.0996  0.1057  0.1911
    1W        W51598   4.787   2.536   8.079  0.0846  0.0144 -0.0113
    1W        W51599   6.737  11.180   8.081 -0.1201 -0.1708 -0.1021
    1W        W51600  23.701   6.170   8.797 -0.2313  0.0204  0.4906
    1W        W51601  28.803  13.701   1.339 -0.3529  0.3001 -0.2736
    1W        W51602  17.957   3.490   0.812  0.0708  0.0530 -0.0846
    1W        W51603  26.470   8.224   1.653 -0.3613 -0.3106  0.2475
    1W        W51604  12.383   4.251   3.172 -0.2668 -0.3972 -0.3717
    1W        W51605   6.825   9.000   2.578 -0.2380 -0.3520 -0.1878
    1W        W51606  14.134   3.560   1.878 -0.0623  0.2130 -0.1494
    1W        W51607  29.836   9.124   0.683 -0.0750  0.0105 -0.3781
    1W        W51608   3.023   7.128   3.184  0.2411  0.1213  0.2221
    1W        W51609  22.177   9.378   1.981 -0.1558  0.0145  0.1597
    1W        W51610   3.454  16.917   0.196  0.1235 -0.0633  0.0006
    1W        W51611  24.638  17.100   7.676 -0.2527 -0.1190  0.0093
    1W        W51612  10.263  10.981   1.284 -0.2181  0.1716 -0.0690
    1W        W51613   0.124  24.389   8.599 -0.1822  0.0637  0.1581
    1W        W51614  12.960   2.750   0.627 -0.1945  0.0197 -0.1641
    1W        W51615  27.719   9.394   7.318 -0.1617 -0.2308 -0.1384
    1W        W51616   1.884  22.137   1.799 -0.0289  0.0075 -0.1237
    1W        W51617   8.703  17.709   1.515 -0.1527  0.0009  0.1220
    1W        W51618  24.361  18.290   2.314 -0.2100 -0.0811 -0.2520
    1W        W51619   1.728  27.962   8.574  0.0182 -0.0190 -0.1588
    1W        W51620  25.019   6.532   1.104 -0.2799 -0.3205  0.2474
    1W        W51621   8.531   0.906   1.734  0.1858 -0.1275  0.2065
    1W        W51622  20.087  26.202   2.301  0.2275  0.0886  0.4176
    1W        W51623  28.167  13.548   9.186 -0.0040  0.1029  0.5603
    1W        W51624  25.289  17.903   1.522  0.1259 -0.1943  0.2434
    1W        W51625  23.726  13.619   7.654 -0.1778  0.0220  0.3251
    1W        W51626  29.176  16.154   0.606  0.1634  0.0751  0.0181
    1W        W51627  21.500   7.978   0.935  0.1351 -0.1158  0.2609
    1W        W51628  11.560  11.160   1.441 -0.0956 -0.0155  0.2038
    1W        W51629   4.393  28.829   8.340  0.0580  0.1082  0.0158
    1W        W51630   6.070  17.205   0.572 -0.0872 -0.2557  0.0178
    1W        W51631   6.837   0.169   2.496 -0.2585 -0.1596 -0.0846
    1W        W51632  18.106   6.612   8.977 -0.2212  0.0647  0.1236
    1W        W51633   1.206  23.910   1.196  0.1432 -0.0730  0.0207
    1W        W51634  12.944   9.396   8.926 -0.1110  0.0427  0.3116
    1W        W51635   9.581  15.543   1.092  0.0553  0.1919 -0.3363
    1W        W51636  28.547  10.452   0.172 -0.1537  0.0184  0.0789
    1W        W51637  17.537  27.670   1.931 -0.0231 -0.0581 -0.0058
    1W        W51638  27.681  12.448   2.190  0.2222  0.2227 -0.0341
    1W        W51639  12.764  18.708   5.537  0.2970  0.0881 -0.1278
    1W        W51640  26.917   6.418   2.288 -0.0142  0.0673  0.2639
    1W        W51641  27.202  29.050   6.199 -0.1932  0.0671  0.0914
    1W        W51642   5.671  12.662   0.205 -0.1067 -0.0925  0.0203
    1W        W51643  25.292  27.531   8.397 -0.0559  0.1485 -0.3428
    1W        W51644   4.168  17.756   1.009  0.2532  0.2653 -0.1006
    1W        W51645  24.784   3.123   8.388  0.3065  0.2568  0.0035
    1W        W51646  17.076  28.568   6.940  0.1378 -0.2746  0.0095
    1W        W51647  27.832  15.576   2.423 -0.0245  0.3272 -0.0374
    1W        W51648  26.061   2.406   2.737  0.1644 -0.1557 -0.0350
    1W        W51649   5.210  19.019   7.274  0.0051 -0.0507 -0.0314
    1W        W51650   4.747   7.738   6.711  0.0302  0.4353 -0.0653
    1W        W51651   8.078  14.619   8.572  0.1064  0.3676  0.2087
    1W        W51652   3.341  26.702   9.206  0.0791 -0.1594  0.2636
    1W        W51653  19.156  26.428   8.626  0.2454  0.1442 -0.2299
    1W        W51654  23.292  24.313   9.099 -0.0818 -0.4300 -0.2467
    1W        W51655  10.160  23.514   1.311  0.2023  0.0986 -0.0614
    1W        W51656   3.467  11.200   6.678  0.0410 -0.2607  0.0602
    1W        W51657  10.220  12.500   9.150  0.2330 -0.0670  0.2998
    1W        W51658   2.139  19.670   8.662  0.0989  0.0880  0.1305
    1W        W51659  23.033  13.630   1.675  0.0310  0.0026 -0.1155
    1W        W51660  12.472  12.722   0.015 -0.1707  0.1806 -0.2035
    1W        W51661  12.045   7.409   2.347 -0.1706 -0.2562  0.1981
    1W        W51662   6.008  14.700   7.778 -0.1305 -0.1350  0.1064
    1W        W51663  16.999   8.136   7.821 -0.1412  0.1421  0.1310
    1W        W51664   9.111  23.196   8.313  0.2044  0.0858  0.2036
    1W        W51665  26.607   7.632   2.483  0.3081  0.2066  0.0754
    1W        W51666  21.534  25.078   1.007  0.1748  0.0474  0.2987
    1W        W51667  24.368  23.734   1.814 -0.1972 -0.0065 -0.0651
    1W        W51668  19.350  26.770   0.115 -0.0019 -0.0253  0.0979
    1W        W51669   9.799  23.183   1.092 -0.1583 -0.4200  0.0545
    1W        W51670  19.117   1.324   3.511  0.3431  0.0463  0.0962
    1W        W51671  28.031  20.441   0.110 -0.2249  0.4505  0.1235
    1W        W51672  19.838   0.175   1.230  0.0365 -0.2700 -0.3792
    1W        W51673   1.636   7.332   8.971 -0.4411 -0.0783  0.0426
    1W        W51674  21.838  12.447   8.028 -0.2848  0.1426  0.2990
    1W        W51675  27.035  16.945   8.302  0.2534  0.0017 -0.0260
    1W        W51676   2.192   5.988   0.457 -0.1417  0.2421 -0.3899
    1W        W51677  21.112   4.655   7.674 -0.1879 -0.0590 -0.0685
    1W        W51678  10.767  18.552   0.254 -0.1116 -0.1013  0.0853
    1W        W51679   6.807   9.089   2.114  0.2220 -0.1558  0.0890
    1W        W51680   7.955  22.088   7.013 -0.1113  0.0644  0.1513
    1W        W51681  23.295  27.490   8.619  0.0775 -0.0022 -0.1648
    1W        W51682  29.754  12.332   7.222 -0.2624 -0.0434  0.5243
    1W        W51683  23.310   1.444   3.185 -0.1892  0.3625 -0.2548
    1W        W51684   7.711   5.150   8.638 -0.0363  0.1578  0.2886
    1W        W51685  11.122   2.118   8.697  0.0398 -0.2456 -0.1280
    1W        W51686  15.197  13.359   0.457 -0.1767 -0.1834  0.3283
    1W        W51687   0.869   6.650   9.010  0.0882 -0.0561 -0.1739
    1W        W51688   1.685   9.515   8.622  0.1913  0.0301 -0.1544
    1W        W51689  22.487   4.556   2.247 -0.0566  0.0929  0.0965
    1W        W51690   1.671  18.947   0.259  0.0549  0.2267  0.0969
    1W        W51691  18.284  16.545   7.823  0.0160 -0.0516 -0.1255
    1W        W51692  16.288  24.838   9.299  0.1041  0.2089 -0.3148
    1W        W51693   2.903   2.040   1.323 -0.1376  0.0173 -0.2710
    1W        W51694  25.870   1.540   0.538 -0.1539 -0.0211 -0.0955
    1W        W51695  19.520  10.401   2.096 -0.1359 -0.0292 -0.2076
    1W        W51696  19.486  15.538   8.100  0.2059 -0.2028  0.0598
    1W        W51697   8.568   1.878   9.347  0.1257  0.1212  0.0876
    1W        W51698  21.430  12.626   0.355 -0.4142 -0.1040 -0.0838
    1W        W51699   0.147  29.181   0.102 -0.0981 -0.0356 -0.0668
    1W        W51700  19.198  25.046   2.067 -0.0810 -0.1749  0.1689
    1W        W51701   5.776  25.933   7.909 -0.2461 -0.0769 -0.1379
    1W        W51702  12.057  22.509   9.474 -0.0323  0.1301 -0.0512
    1W        W51703  28.294  22.810   9.155 -0.0738  0.0429  0.0276
    1W        W51704   9.981   3.516   2.482 -0.1845 -0.0905  0.1450
    1W        W51705   5.392  13.947   8.030  0.1438  0.2134 -0.1168
    1W        W51706   3.937  16.260   9.047  0.2388 -0.1124 -0.0506
    1W        W51707   9.277   3.458   0.558  0.1255  0.1492  0.1635
    1W        W51708  22.123  15.249   1.627 -0.1203 -0.1904 -0.1221
    1W        W51709   5.154  23.002   5.537 -0.1726  0.1737 -0.1873
    1W        W51710  22.514  20.882   2.371  0.0429 -0.1023  0.0921
    1W        W51711   4.041  23.622   6.324  0.0820  0.3261 -0.2303
    1W        W51712  26.349  27.550   1.320 -0.1629  0.1253  0.0225
    1W        W51713  11.851  11.612   7.040  0.1103 -0.0391 -0.1453
    1W        W51714  13.700  25.565   8.143  0.3033  0.0225  0.0937
    1W        W51715  26.774  25.770   0.453  0.0318  0.0584 -0.1407
    1W        W51716  24.142  21.488   6.441 -0.2277  0.1822 -0.0456
    1W        W51717  24.066   8.588   1.296 -0.0209 -0.0690  0.0384
    1W        W51718  26.278  22.617   8.012 -0.0555  0.0260  0.2452
    1W        W51719   5.581   5.884   0.172  0.0205  0.0591 -0.2660
    1W        W51720   1.232  19.944   7.691  0.0300 -0.0687  0.1332
    1W        W51721  23.739  16.001   9.394  0.1601 -0.1458  0.1448
    1W        W51722  10.772  15.993   7.687 -0.0628 -0.0484  0.2827
    1W        W51723  10.288  10.468   1.319  0.0817  0.0500 -0.1341
    1W        W51724  28.277  12.749   9.471 -0.0159 -0.3154 -0.2869
    1W        W51725  28.287  21.746   0.708  0.0096  0.1219  0.1434
    1W        W51726   7.976  20.814   0.429  0.3836  0.0407  0.3731
    1W        W51727  18.864   8.279   8.075 -0.1805 -0.0603  0.0347
    1W        W51728  14.533  15.586   7.333 -0.2666  0.1578 -0.2140
    1W        W51729  26.018  14.048   8.251 -0.3093  0.0658  0.2773
    1W        W51730   2.797   3.262   8.350  0.0221 -0.0032 -0.0562
    1W        W51731  16.147  29.386   1.264 -0.1592 -0.2030 -0.4087
    1W        W51732   7.566  20.719   0.168 -0.0061 -0.1689  0.0464
    1W        W51733   4.139  28.187   1.484  0.0037  0.3107 -0.0298
    1W        W51734   0.529  20.975   0.620 -0.3150 -0.1019 -0.3375
    1W        W51735  18.130   9.161   8.897  0.0247 -0.2251 -0.0834
    1W        W51736   0.028   7.152   2.337  0.2604 -0.1694 -0.0589
    1W        W51737   5.362  15.601   8.118  0.0011  0.2864  0.0411
    1W        W51738  15.116  21.858   9.096 -0.1629 -0.2940 -0.1421
    1W        W51739  23.661  21.595   2.015 -0.1526  0.0088  0.0302
    1W        W51740   7.945  25.785   1.190 -0.1806  0.2861  0.2569
    1W        W51741  21.509  13.347   0.856 -0.0305  0.1073 -0.0043
    1W        W51742   1.886  27.285   7.997  0.3702 -0.1876  0.3055
    1W        W51743   6.091  28.246   7.236 -0.2606  0.1247 -0.5080
    1W        W51744  25.370  28.147   2.172  0.0497 -0.0604 -0.0803
    1W        W51745   9.935  15.862   0.717  0.0522 -0.2997 -0.0332
    1W        W51746  24.527  15.450   1.808  0.4001 -0.0169 -0.2301
    1W        W51747  21.740  17.998   9.038  0.2589 -0.0556 -0.1044
    1W        W51748   8.079  24.892   7.216  0.0012 -0.3258  0.1591
    1W        W51749  28.960  24.669   0.072 -0.0297  0.2478 -0.0533
    1W        W51750  24.188   8.753   8.022 -0.0944  0.1821  0.2589
    1W        W51751  29.584  20.726   7.314  0.1950  0.1928  0.1772
    1W        W51752   3.090  21.973   8.681  0.1899 -0.1328  0.0956
    1W        W51753  22.787   1.598   0.140  0.0942 -0.2730  0.0557
    1W        W51754   2.955  20.301   6.887 -0.1807  0.2996 -0.0949
    1W        W51755  17.722  22.383   7.330  0.0188  0.0027 -0.2281
    1W        W51756  11.002  14.937   0.504 -0.2965 -0.0167 -0.1328
    1W        W51757  17.785  10.339   8.691  0.0637  0.0737  0.2178
    1W        W51758   4.061  22.597   0.600 -0.2416  0.0780 -0.1191
    1W        W51759  10.406   4.775   2.356  0.1437  0.2324 -0.1298
    1W        W51760  15.396   3.723   3.973 -0.2292  0.1358 -0.1421
    1W        W51761   8.097   4.239   3.322 -0.1124 -0.0590 -0.0650
    1W        W51762   1.216  22.516   7.039  0.2589 -0.2100 -0.1728
    1W        W51763  13.130   7.515   1.331 -0.0848  0.0393  0.2434
    1W        W51764   4.403  13.664   6.522  0.3217 -0.0023 -0.1698
    1W        W51765  12.725   5.190   0.922  0.0427  0.1393 -0.2908
    1W        W51766  13.791  29.487   6.918 -0.2063 -0.1717 -0.1691
    1W        W51767  28.992   3.740   6.887 -0.2229 -0.1039 -0.0467
    1W        W51768  14.903  19.446   5.224  0.3530 -0.0175 -0.1770
    1W        W51769  27.245   6.631   8.382  0.0608 -0.0142 -0.0452
    1W        W51770   4.812  15.656   8.229 -0.2429 -0.2160  0.0136
    1W        W51771  10.832   6.076   2.658  0.0318  0.1263  0.1622
    1W        W51772   6.145  15.633   6.338  0.3352 -0.2449 -0.1989
    1W        W51773  11.820  18.358   0.706 -0.1963  0.0650 -0.1974
    1W        W51774   0.751   3.588   1.480  0.2405  0.3032  0.1426
    1W        W51775   0.412   8.867   2.796 -0.1599  0.0767 -0.1905
    1W        W51776   3.634   1.461   0.513  0.1089  0.0763  0.1879
    1W        W51777   6.973  22.843   6.834  0.1864  0.1952 -0.1151
    1W        W51778   8.011  14.323   6.852  0.2250 -0.0123 -0.1776
    1W        W51779   1.669  15.435   8.032  0.0839 -0.1652  0.3043
    1W        W51780   6.452  27.443   2.105  0.2426  0.0724 -0.1083
    1W        W51781  24.948  20.549   2.091  0.1383  0.0456 -0.3829
    1W        W51782   7.455  19.035   2.590 -0.0959 -0.1197 -0.0094
    1W        W51783  26.291  19.369   6.986 -0.0352  0.1714 -0.1439
    1W        W51784   1.081   2.514   7.409 -0.0410 -0.0586 -0.0082
    1W        W51785  27.158   8.842   6.268  0.0487  0.1582 -0.0347
    1W        W51786  18.455  25.313   8.080  0.0158 -0.0904  0.0742
    1W        W51787  10.026   6.716   7.908  0.3349 -0.0094  0.0447
    1W        W51788   6.499  10.669   3.281 -0.3198  0.0215  0.0864
    1W        W51789  12.164   7.855   3.814  0.0561 -0.0402 -0.0105
    1W        W51790  20.318  23.797   7.717 -0.1940 -0.0023  0.2307
    1W        W51791  24.808   6.758   0.270 -0.0559 -0.2146 -0.1185
    1W        W51792   1.133  10.149   9.216 -0.1952  0.1644  0.2162
    1W        W51793   0.265  24.977   6.032 -0.3404  0.0819  0.0864
    1W        W51794  13.611  24.245   6.262 -0.4145 -0.1758 -0.2829
    1W        W51795  20.905   4.245   7.386  0.0041  0.0550  0.3120
    1W        W51796   7.604  13.645   7.446  0.3069  0.2600  0.1128
    1W        W51797   0.011  25.840   7.559 -0.0826  0.3467 -0.0747
    1W        W51798  21.738   4.542   0.416  0.3114 -0.5889 -0.0073
    1W        W51799  21.030  14.848   1.190  0.1620  0.2537 -0.0334
    1W        W51800   8.527   6.083   8.409 -0.2172 -0.0056  0.0171
    1W        W51801   4.888  25.655   6.934 -0.0308 -0.1650 -0.1105
    1W        W51802  28.917  26.947   1.480  0.1427  0.0917  0.4804
    1W        W51803  28.890  19.823   2.503 -0.0810  0.0686 -0.0353
    1W        W51804  26.996  28.868   7.149  0.5608 -0.0925 -0.1209
    1W        W51805  29.613   9.839   8.179 -0.2429  0.1056  0.1259
    1W        W51806   2.890   2.364   9.358  0.2323  0.0486 -0.0272
    1W        W51807  29.499  13.284   1.114 -0.1667 -0.4920 -0.2025
    1W        W51808  15.157  18.950   0.877  0.1704 -0.4054 -0.0935
    1W        W51809   1.949  28.231   7.584  0.0622  0.0412 -0.0261
    1W        W51810   7.165  22.685   9.187 -0.1310  0.2926  0.3081
    1W        W51811  19.525  14.396   0.666 -0.1244  0.1669  0.0893
    1W        W51812  27.633  11.966   7.106  0.0175  0.1075 -0.0826
    1W        W51813  13.986  13.263   1.411  0.3839 -0.2950 -0.0585
    1W        W51814  25.032   7.935   8.729  0.3122  0.2606 -0.2159
    1W        W51815  18.697   9.361   0.067 -0.0020  0.2201 -0.1256
    1W        W51816   2.328  25.437   1.534  0.1874  0.1072  0.3236
    1W        W51817  18.203   0.558   4.102 -0.2959 -0.0254  0.2055
    1W        W51818  18.751  25.769   8.025  0.2005  0.1843 -0.0059
    1W        W51819  29.244  27.584   0.456 -0.0936  0.1754  0.1571
    1W        W51820  25.773  28.024   9.225  0.2848  0.1365 -0.0920
    1W        W51821  13.504   6.241   2.857  0.1600  0.1828  0.0702
    1W        W51822   8.583  14.192   6.646  0.1638 -0.0049  0.2161
    1W        W51823  10.304  23.444   0.777 -0.1468  0.2875 -0.0768
    1W        W51824   1.280  23.250   1.958  0.0865 -0.1973 -0.0308
    1W        W51825  27.850  10.774   0.535  0.0687  0.2227  0.0742
    1W        W51826   6.629  12.050   7.620  0.2605 -0.0763 -0.3690
    1W        W51827  26.355   5.613   7.719 -0.2740 -0.0108  0.0203
    1W        W51828   3.936  27.224   0.259 -0.2928  0.0669 -0.0526
    1W        W51829   6.977  19.870   0.925  0.0196 -0.2577  0.1044
    1W        W51830   6.716  19.267   0.386  0.0042 -0.0924  0.0159
    1W        W51831  22.308  19.984   7.494  0.2272  0.2680 -0.2333
    1W        W51832   8.850   3.451   0.906  0.3212 -0.0342 -0.1913
    1W        W51833   2.004  23.477   9.389 -0.3007 -0.3489  0.2184
    1W        W51834  26.082   4.468   2.727 -0.0230  0.0933 -0.1638
    1W        W51835  13.932  11.967   1.033 -0.0312  0.1466  0.1843
    1W        W51836  24.954  19.491   9.342 -0.0252  0.0527  0.1134
    1W        W51837   0.295   7.701   0.129  0.1499 -0.2391  0.1414
    1W        W51838   4.190  16.145   7.710 -0.0237  0.2069 -0.0470
    1W        W51839  29.041   5.840   1.662 -0.0231  0.1260 -0.2108
    1W        W51840   2.253  11.987   8.711  0.0856  0.0768  0.0976
    1W        W51841  10.276  26.606   1.921  0.2451 -0.2634  0.0362
    1W        W51842  23.293  22.948   6.795 -0.3907 -0.0724  0.0099
    1W        W51843   1.579  18.258   1.221  0.1569 -0.0170  0.2042
    1W        W51844   5.176  26.089   6.115  0.0973 -0.0264 -0.1704
    1W        W51845  13.114  27.318   0.869 -0.2680  0.0776  0.3963
    1W        W51846  20.008   5.729   0.984  0.1635 -0.0330  0.1844
    1W        W51847   3.767  17.776   0.675 -0.0249 -0.5546 -0.0009
    1W        W51848  29.545  10.194   7.202 -0.0309 -0.1101  0.1593
    1W        W51849   8.438  28.817   0.737 -0.0198  0.0647  0.3160
    1W        W51850  25.707  29.159   0.852 -0.0485  0.1540 -0.3166
    1W        W51851   5.824  19.214   2.373 -0.2874 -0.0576 -0.1152
    1W        W51852  16.873  12.274   7.892  0.0727  0.1137  0.2549
    1W        W51853  15.566  29.560   2.619  0.1601  0.1731 -0.2742
    1W        W51854  17.017   7.184   9.502  0.0515 -0.0385  0.1922
    1W        W51855   1.230  17.759   0.242  0.1381 -0.0241 -0.1278
    1W        W51856  15.839  29.310   1.690  0.0910  0.0853  0.1915
    1W        W51857   2.116   5.865   9.144  0.0152  0.1024  0.1987
    1W        W51858  19.576  24.664   7.601 -0.2242  0.2334 -0.2129
    1W        W51859   2.538   0.572   2.534 -0.0580  0.1854 -0.0331
    1W        W51860  22.242   6.456   3.451 -0.0164  0.0037  0.4129
    1W        W51861   5.518  27.615   2.157  0.0149 -0.0486  0.0788
    1W        W51862   6.949   9.487   8.426 -0.1180 -0.0384  0.3662
    1W        W51863  29.212  19.504   9.526 -0.1813  0.0124 -0.5590
    1W        W51864   0.974   5.791   1.364 -0.1346 -0.1388  0.2196
    1W        W51865  28.355   0.292   1.025  0.1920  0.0887 -0.3182
    1W        W51866  13.746   3.417   3.011 -0.1676 -0.3900  0.1255
    1W        W51867  28.237  10.325   2.397  0.3308 -0.2760  0.0935
    1W        W51868  12.472  26.560   8.923 -0.1934 -0.1221 -0.1057
    1W        W51869  16.154   7.566   2.735  0.1454 -0.2830 -0.3560
    1W        W51870  22.160   3.870   2.984 -0.0111  0.1344 -0.0324
    1W        W51871  14.157  24.192   0.940  0.0307 -0.1002 -0.3257
    1W        W51872   5.100   1.903   9.434 -0.3102  0.1270 -0.1820
    1W        W51873  18.338  18.040   8.362  0.1028  0.2292 -0.1227
    1W        W51874  19.533   8.834   8.420  0.1673 -0.1430  0.1711
    1W        W51875  18.413   9.599   9.180  0.1515  0.1217  0.0151
    1W        W51876  19.649  29.493   1.643 -0.0944 -0.2851  0.2579
    1W        W51877   1.492  17.854   0.842 -0.1986 -0.2831  0.1457
    1W        W51878  27.012  22.645   1.615  0.1683 -0.1828 -0.0963
    1W        W51879   7.926   3.543   0.442 -0.0047 -0.2589 -0.2803
    1W        W51880  27.778  14.449   1.642  0.0695 -0.2220 -0.2028
    1W        W51881   9.183  10.222   6.326 -0.1846  0.1303 -0.1665
    1W        W51882   8.338   7.679   7.754  0.3162  0.2866  0.1469
    1W        W51883  22.609   0.431   1.520 -0.3965  0.1953 -0.0738
    1W        W51884  29.484   7.579   0.660 -0.1640  0.0409  0.0978
    1W        W51885  25.663  13.456   2.125 -0.1994 -0.0657 -0.0596
    1W        W51886  29.585  28.862   6.523 -0.0107  0.0411  0.1342
    1W        W51887  16.511  17.726   6.420  0.0512  0.0955  0.3567
    1W        W51888  27.842  22.109   9.082 -0.1091  0.0214 -0.4811
    1W        W51889   0.784  20.117   1.815 -0.3457 -0.1286 -0.0666
    1W        W51890   2.397   6.462   0.286  0.0189 -0.2242  0.0069
    1W        W51891   0.081   3.942   8.359  0.0289 -0.0516 -0.2533
    1W        W51892  24.144  16.552   1.921  0.2188 -0.0258  0.1200
    1W        W51893   5.689  29.735   1.212 -0.3229 -0.2501 -0.1441
    1W        W51894   0.665  11.307   7.460 -0.1650 -0.0231 -0.1281
    1W        W51895  27.013  29.439   1.015 -0.0276 -0.1555  0.0654
    1W        W51896  17.169   6.695   2.510  0.4348 -0.2157  0.0393
    1W        W51897  22.400   9.194   8.550 -0.2018  0.1011  0.2570
    1W        W51898   0.494   8.165   9.266  0.1848  0.2826  0.2338
    1W        W51899  29.480  24.596   6.534 -0.0126 -0.2492  0.0838
    1W        W51900   7.895   4.163   2.618 -0.1647  0.1541  0.1439
    1W        W51901  25.882  29.496   3.096  0.1664  0.1235 -0.2068
    1W        W51902  20.167  14.686   7.021 -0.0982 -0.0223  0.0045
    1W        W51903  14.021  20.071   0.401  0.1758  0.0688  0.1911
    1W        W51904  28.168   3.748   1.804  0.0237  0.0193 -0.1656
    1W        W51905  18.511  26.836   0.038 -0.2712  0.2456 -0.0633
    1W        W51906   8.914   5.963   2.486  0.1704 -0.1112 -0.0699
    1W        W51907  16.087   9.564   2.537 -0.1204 -0.3342 -0.0260
    1W        W51908  18.978   4.838   1.483 -0.0292 -0.3604 -0.0142
    1W        W51909   7.868  24.940   8.849  0.2084 -0.2042 -0.2520
    1W        W51910  28.946   0.483   6.149  0.0637  0.2544 -0.0453
    1W        W51911   1.866  27.502   8.423 -0.2353  0.0683 -0.0067
    1W        W51912  20.677  17.737   1.054 -0.0551  0.0254 -0.0966
    1W        W51913   7.912  24.092   2.430  0.0787 -0.0666  0.0631
    1W        W51914  28.292   0.145   0.520  0.1047  0.1533 -0.0449
    1W        W51915  21.678   0.024   1.086 -0.3344  0.2089  0.0785
    1W        W51916  20.741  11.553   0.536 -0.2251  0.2148 -0.2460
    1W        W51917   7.348   6.540   6.838  0.3468  0.0961 -0.1129
    1W        W51918   3.456   8.675   7.972  0.1846  0.0408  0.1457
    1W        W51919   1.800  29.829   8.068 -0.0592  0.3802  0.0715
    1W        W51920   9.465  10.364   9.354  0.0603 -0.1540 -0.0301
    1W        W51921   7.420  17.833   2.425  0.1159  0.1061 -0.1299
    1W        W51922  29.793  16.433   6.204  0.0521 -0.0510 -0.0756
    1W        W51923  11.187   2.675   9.089 -0.1593 -0.1714  0.2321
    1W        W51924   7.025  13.721   9.497 -0.1232  0.1740  0.1978
    1W        W51925  12.198  16.320   2.182 -0.1872  0.0474  0.2788
    1W        W51926  11.090   5.705   3.599 -0.3344  0.3715 -0.1369
    1W        W51927   4.709   9.247   1.623 -0.1912  0.1407 -0.1936
    1W        W51928  29.354  26.175   7.490  0.1881 -0.0029 -0.0526
    1W        W51929  26.830  11.595   0.730  0.1301 -0.2451  0.1567
    1W        W51930  14.287   8.039   1.066 -0.2550 -0.1314  0.2843
    1W        W51931  13.633  13.593   8.128  0.3038 -0.3156 -0.3339
    1W        W51932   6.822  28.559   1.415 -0.0857 -0.1150 -0.0847
    1W        W51933  12.564  28.841   9.131 -0.0915 -0.2346 -0.0596
    1W        W51934   1.955  24.051   6.582 -0.3773 -0.3373 -0.0404
    1W        W51935   2.649   3.385   7.540  0.1269 -0.0179  0.1170
    1W        W51936  18.356  16.659   8.682 -0.1307 -0.3079 -0.0923
    1W        W51937  27.204  26.773   0.353 -0.1611  0.3674 -0.0114
    1W        W51938   0.197  16.860   1.772  0.1220  0.0882  0.0408
    1W        W51939  16.093  27.743   1.937  0.1693  0.1340 -0.1939
    1W        W51940  25.586  20.057   6.580  0.2249 -0.2736  0.1714
    1W        W51941  11.197  17.213   6.281  0.0089 -0.3451  0.1562
    1W        W51942  16.797  19.201   7.015 -0.2377  0.2836 -0.2802
    1W        W51943  25.091   9.563   0.654  0.0289 -0.0359 -0.0020
    1W        W51944  26.942  27.404   9.194  0.0549  0.3159 -0.0082
    1W        W51945   2.924   9.449   9.179  0.0959 -0.0946 -0.1220
    1W        W51946  12.637   5.493   0.445 -0.3622  0.1898 -0.0799
    1W        W51947  19.537  16.599   8.098 -0.1323  0.2066 -0.2088
    1W        W51948  23.255  22.290   8.318 -0.2376 -0.1533  0.1622
    1W        W51949  18.101  14.591   0.598  0.0096 -0.0328 -0.2348
    1W        W51950  23.331   2.766   1.491  0.0763  0.1440 -0.3376
    1W        W51951  17.379  20.427   6.310  0.3633 -0.1601 -0.0389
    1W        W51952  16.577  21.070   6.098 -0.0615 -0.0576  0.0165
    1W        W51953   8.620  21.656   1.212  0.2869 -0.1188 -0.1206
    1W        W51954  26.576  10.997   2.604 -0.0435 -0.0987 -0.3193
    1W        W51955  12.166   9.528   2.230  0.2071 -0.0313  0.1223
    1W        W51956  21.203  14.452   8.600  0.0096  0.1188 -0.0773
    1W        W51957  19.037  28.892   6.918  0.1639 -0.1494 -0.0918
    1W        W51958   0.328  23.877   2.140 -0.3787  0.1419  0.1668
    1W        W51959  16.908   3.889   1.233 -0.1056 -0.0559 -0.2200
    1W        W51960  21.855   1.327   7.349  0.1487 -0.1773 -0.0537
    1W        W51961  19.499   9.831   0.355 -0.1515  0.1662  0.1552
    1W        W51962  10.610   4.688   3.697 -0.2320  0.0864 -0.1293
    1W        W51963  22.647   0.630   0.279 -0.2203  0.3117  0.1149
    1W        W51964  25.752  19.270   6.938  0.2034  0.1215  0.1077
    1W        W51965  18.599   6.818   8.873 -0.0008  0.0313 -0.2933
    1W        W51966  28.724  26.981   2.042  0.1689  0.0006 -0.0787
    1W        W51967   1.361   1.991   0.862  0.2049 -0.1254 -0.1024
    1W        W51968  10.749  20.104   1.266  0.0885 -0.2195  0.1687
    1W        W51969  12.138  15.156   2.637  0.0739  0.3381  0.1220
    1W        W51970  24.302  15.274   0.042  0.0780 -0.2753 -0.1349
    1W        W51971   5.631  28.506   0.125  0.0895 -0.1480  0.1490
    1W        W51972   6.280  12.313   6.946  0.1998  0.3159  0.0618
    1W        W51973  18.863   7.108   2.093  0.0868 -0.0252  0.0062
    1W        W51974   4.839   7.961   2.843 -0.1880  0.0234 -0.0802
    1W        W51975  12.586  17.112   0.136 -0.0097  0.1245  0.0828
    1W        W51976   5.254  27.343   0.399  0.1135 -0.1522 -0.0620
    1W        W51977  26.140  27.145   1.093 -0.4486 -0.0230 -0.0699
    1W        W51978   3.022  28.143   9.243  0.3314  0.1681 -0.1429
    1W        W51979  10.588  29.858   8.549  0.3819  0.2308  0.1354
    1W        W51980   8.553   5.667   8.731 -0.1910 -0.1091 -0.0645
    1W        W51981  23.609   4.713   1.763  0.0239  0.2210  0.2227
    1W        W51982  14.787   8.308   0.143 -0.2764  0.0039 -0.0616
    1W        W51983   6.780   8.623   0.760 -0.0834 -0.5391 -0.0542
    1W        W51984  11.738  20.991   9.190 -0.0299 -0.0429 -0.0221
    1W        W51985  18.799  11.022   0.155 -0.4960 -0.0645  0.0947
    1W        W51986   9.754  25.794   6.514  0.1419 -0.1244 -0.0103
    1W        W51987  27.921  16.727   9.397 -0.0061 -0.0224 -0.0822
    1W        W51988  19.079   2.485   8.845  0.2159 -0.0195  0.0364
    1W        W51989   8.682   1.380   0.455 -0.1276 -0.1247  0.1605
    1W        W51990   5.755  28.002   0.954 -0.1000  0.0852  0.0359
    1W        W51991  29.200   6.267   1.877  0.0020  0.0335  0.0906
    1W        W51992   6.892  16.830   9.462  0.0832 -0.2940 -0.0846
    1W        W51993   8.769  22.289   8.371 -0.0785 -0.1719  0.3621
    1W        W51994  18.544  24.445   1.483 -0.2601 -0.2396 -0.0316
    1W        W51995  24.163   5.031   8.786  0.0911  0.0081 -0.3710
    1W        W51996  15.095  12.046   6.955 -0.0959  0.0239 -0.0841
    1W        W51997  21.249   3.816   0.478 -0.2314 -0.1914  0.1968
    1W        W51998   1.663   6.146   2.603 -0.1342  0.2048  0.2594
    1W        W51999  26.354   8.901   0.190  0.0344 -0.1487 -0.2353
    1W        W52000  11.347   5.394   2.930  0.1509 -0.0964 -0.0441
    1W        W52001  24.011  28.641   3.107  0.1154  0.0457  0.0799
    1W        W52002  27.522   4.029   8.999  0.0204  0.1673 -0.0094
    1W        W52003  25.570   2.347   8.740  0.0720  0.1539  0.0102
    1W        W52004   3.698  15.572   6.832  0.1310 -0.0935 -0.0135
    1W        W52005  15.900   5.090   2.879  0.0854 -0.1613 -0.1601
    1W        W52006  20.357   4.595   1.758 -0.1897 -0.1259  0.0872
    1W        W52007   1.249   4.461   0.744 -0.0930  0.2052  0.1603
    1W        W52008   5.821  11.932   6.732 -0.2358  0.1271 -0.2244
    1W        W52009   7.708  24.893   5.946  0.0731 -0.0716 -0.0649
    1W        W52010   8.372   9.669   9.341  0.0742 -0.0734  0.2392
    1W        W52011   1.970  27.027   6.980 -0.2958  0.4583  0.1241
    1W        W52012   7.496  21.952   8.466  0.0398  0.0750 -0.0993
    1W        W52013   2.943  24.429   8.916 -0.2175 -0.1411  0.1757
    1W        W52014  22.676  15.366   9.462  0.2657  0.1741  0.0697
    1W        W52015  21.825   2.433   1.585  0.1745  0.2803 -0.2302
    1W        W52016  25.479   6.480   0.933  0.0070 -0.2000  0.2243
    1W        W52017  27.307   4.425   1.094  0.0035 -0.0743 -0.1725
    1W        W52018  27.171   8.689   7.823 -0.1037  0.1247  0.1423
    1W        W52019  18.629  22.394   6.853 -0.3204 -0.2270  0.0583
    1W        W52020  29.146  15.475   1.761  0.1107 -0.3031  0.0805
    1W        W52021   3.204   3.993   6.455 -0.1296 -0.2545 -0.0350
    1W        W52022  15.076  24.923   6.680  0.1528 -0.0376 -0.1840
    1W        W52023  17.531   4.768   2.395  0.1449 -0.0126 -0.1364
    1W        W52024   8.340  21.429   5.771 -0.2243 -0.0456  0.1428
    1W        W52025  13.140  26.311   1.348 -0.0822 -0.0190  0.0958
    1W        W52026  27.239  14.454   2.230 -0.2104  0.0862  0.1283
    1W        W52027   5.012  19.420   1.072  0.2486 -0.0388 -0.0433
    1W        W52028   5.067   2.759   0.682 -0.2217 -0.1950  0.1530
    1W        W52029  29.512  23.497   9.276  0.1243  0.2763 -0.0057
    1W        W52030  13.643   0.439   4.107 -0.1340 -0.1979 -0.4007
    1W        W52031  28.635   6.584   0.662  0.2735 -0.4065  0.0813
    1W        W52032   5.646   2.949   0.429  0.3294 -0.1375  0.1890
    1W        W52033  28.314   4.981   0.458 -0.0028  0.0965 -0.1870
    1W        W52034   4.466  10.738   8.353  0.1208  0.1524 -0.1703
    1W        W52035   8.771   1.422   9.453 -0.3869 -0.1159  0.0371
    1W        W52036  20.339  11.819   9.476  0.2542  0.1486  0.1422
    1W        W52037  26.435  18.940   7.741 -0.2710 -0.0773  0.1266
    1W        W52038  23.154  12.721   1.134  0.1278  0.2199 -0.3206
    1W        W52039  28.054   6.785   8.448 -0.1606  0.1299 -0.0246
    1W        W52040  11.361  24.261   5.361  0.0863  0.2457  0.0158
    1W        W52041   8.417  29.303   2.819 -0.0027 -0.0274 -0.2610
    1W        W52042  28.158  16.169   1.925  0.0756  0.0246  0.0478
    1W        W52043  13.863   0.352   1.864 -0.1486 -0.1317  0.1313
    1W        W52044  13.918   1.137   8.427 -0.1846  0.2023  0.0873
    1W        W52045  20.686   4.112   2.649  0.2427  0.2128  0.1350
    1W        W52046  23.536  16.829   1.386  0.0239  0.1866  0.1675
    1W        W52047  19.694  20.438   5.712 -0.0259 -0.3917  0.0818
    1W        W52048   2.182  23.119   0.231  0.0528  0.0627 -0.2491
    1W        W52049   3.344   4.652   9.203 -0.2939  0.1892  0.2309
    1W        W52050  23.967  12.361   1.349  0.3137 -0.0965  0.1650
    1W        W52051   8.493   5.569   8.201 -0.2451  0.1069  0.1283
    1W        W52052  23.989   8.068   1.432 -0.3072 -0.1326  0.1109
    1W        W52053  24.347  18.903   7.319 -0.0246 -0.1980  0.1907
    1W        W52054   2.487  24.124   6.426 -0.2715 -0.1001 -0.0304
    1W        W52055  14.732   6.126   8.931  0.0458  0.1631  0.0448
    1W        W52056  14.106   2.834   9.157  0.3563 -0.2638  0.0707
    1W        W52057  23.942  22.838   8.863 -0.1457  0.3371  0.0706
    1W        W52058  11.509   5.262   3.718 -0.0618  0.2530 -0.0672
    1W        W52059  17.260  18.679   7.768 -0.0273 -0.2371  0.1661
    1W        W52060  10.058  17.810   2.324 -0.1336 -0.3509 -0.0858
    1W        W52061  14.447  15.028   8.356  0.1139 -0.1245 -0.0722
    1W        W52062   6.147  18.863   2.169 -0.0987 -0.0370 -0.0048
    1W        W52063  23.149  21.007   0.682  0.0313 -0.4114 -0.2421
    1W        W52064  27.375  14.746   0.944  0.0357 -0.1146  0.0907
    1W        W52065   4.010  21.694   8.849 -0.1777  0.1643 -0.2608
    1W        W52066   2.543  17.303   1.787  0.1137  0.0221 -0.1419
    1W        W52067   9.852   0.337   8.960  0.0750  0.1680  0.2906
    1W        W52068  10.056  19.086   0.562 -0.0836  0.0767  0.0289
    1W        W52069  11.283  14.080   5.786  0.1219 -0.0890 -0.0728
    1W        W52070  27.338  20.599   9.257 -0.1902 -0.2509 -0.1983
    1W        W52071  22.454   6.277   8.596  0.2240 -0.2659  0.1761
    1W        W52072  21.960   0.093   8.110  0.2845 -0.0608  0.2104
    1W        W52073  29.252   7.492   9.501 -0.2060  0.0009 -0.1094
    1W        W52074  19.846  29.530   8.483  0.0301 -0.2848  0.0533
    1W        W52075  23.179   6.992   1.257 -0.3585  0.2958  0.3959
    1W        W52076  11.880  20.948   0.750 -0.2074  0.2016 -0.0863
    1W        W52077  15.898  28.744   8.199 -0.1673 -0.2963 -0.0847
    1W        W52078   6.928   3.378   6.399  0.1571 -0.2948 -0.1995
    1W        W52079  18.649  23.395   8.148  0.0131 -0.1108 -0.1764
    1W        W52080  27.592   1.342   7.845 -0.2453 -0.2435 -0.1277
    1W        W52081  11.135  25.858   8.078  0.0759 -0.3171 -0.2032
    1W        W52082  24.463   5.560   3.448  0.3812  0.1894  0.0907
    1W        W52083   5.426  20.259   1.377  0.1523 -0.1147 -0.1187
    1W        W52084  18.585   4.874   2.717 -0.0403 -0.0794 -0.3250
    1W        W52085   5.120  25.795   8.287  0.0860  0.0356 -0.0231
    1W        W52086  17.934  19.328   1.075 -0.0471 -0.1104  0.1459
    1W        W52087  18.035  11.423   1.655 -0.0728 -0.1484  0.2269
    1W        W52088  14.482  29.478   7.529  0.0401  0.2834  0.0828
    1W        W52089  19.339   2.494   3.630  0.1802 -0.0696 -0.1696
    1W        W52090  29.413  17.590   0.408 -0.2056  0.0401 -0.0090
    1W        W52091   1.771   2.623   6.659 -0.4666  0.2102 -0.0712
    1W        W52092   2.060  24.256   2.453 -0.1412 -0.2395 -0.2426
    1W        W52093  23.120  26.385   7.586  0.1490  0.3251  0.1890
    1W        W52094  19.272   5.177   1.235 -0.0597  0.0299 -0.0253
    1W        W52095  11.075  20.356   7.427  0.3221  0.1816  0.1397
    1W        W52096   8.798  14.518   0.297 -0.1823 -0.0282 -0.2379
    1W        W52097  12.909   3.046   4.415 -0.2101  0.2676  0.2018
    1W        W52098  22.830  22.623   2.836  0.1990 -0.0637 -0.2270
    1W        W52099  20.337  26.667   2.133  0.3199 -0.1159  0.1168
    1W        W52100  18.203  11.043   8.932 -0.2365 -0.0486 -0.2081
    1W        W52101   4.508   8.583   1.111  0.1444 -0.3618 -0.2757
    1W        W52102  10.231  27.531   7.768  0.0665 -0.1104  0.1316
    1W        W52103   7.584  16.674   1.548  0.0117 -0.2989  0.1647
    1W        W52104  22.767  13.138   7.079  0.0002 -0.2203  0.0056
    1W        W52105  13.916  24.126   6.719  0.1622 -0.0719 -0.0809
    1W        W52106  17.443  13.193   0.740 -0.2146  0.0969  0.1459
    1W        W52107  15.985   1.506   0.923  0.1199  0.1517  0.1547
    1W        W52108   7.417   2.537   9.080  0.0809 -0.2085  0.2716
    1W        W52109   5.608  19.119   8.795 -0.0194  0.0736  0.1174
    1W        W52110  16.579  11.372   7.777 -0.0537  0.1223  0.1476
    1W        W52111  24.062  25.154   6.244  0.0622  0.2322  0.0527
    1W        W52112  15.130  24.750   6.199  0.0459  0.3327 -0.1407
    1W        W52113  21.754  16.830   6.703 -0.0730  0.0217 -0.0324
    1W        W52114  27.469   0.375   3.285  0.1174  0.2028  0.0463
    1W        W52115  22.523   8.917   9.428  0.1010 -0.0495 -0.2672
    1W        W52116  21.407  15.025   7.879 -0.0479 -0.1684  0.1857
    1W        W52117  14.029  16.588   1.372  0.2726 -0.0008 -0.2036
    1W        W52118  14.698  28.334   2.429 -0.4840 -0.1227  0.1481
    1W        W52119   8.719   7.355   1.691  0.0833 -0.0220  0.1536
    1W        W52120   2.394  12.149   2.707 -0.2462  0.2538 -0.0635
    1W        W52121   2.119  10.020   9.319 -0.0182  0.2099  0.0783
    1W        W52122  28.210  13.933   7.189 -0.0160  0.1328  0.2957
    1W        W52123  18.788  16.611   1.987  0.2826 -0.0170 -0.3699
    1W        W52124  27.786  28.568   7.104  0.4020  0.2236 -0.0484
    1W        W52125  19.760   0.367   2.370 -0.0913  0.1089  0.2291
    1W        W52126  24.597   0.936   8.373 -0.0143 -0.2879 -0.1544
    1W        W52127  17.333  20.714   7.697 -0.0319  0.2531 -0.1025
    1W        W52128  14.225   3.901   4.028  0.0707 -0.2046  0.3597
    1W        W52129   9.767   5.749   1.790 -0.0941 -0.0481 -0.3701
    1W        W52130  16.932   8.731   2.840 -0.0985  0.0774  0.0937
    1W        W52131   7.041  22.928   8.402  0.0673  0.0192 -0.2194
    1W        W52132  17.606  21.186   7.595  0.1554 -0.0357  0.0419
    1W        W52133  10.432  13.512   2.823  0.0011  0.0448 -0.1935
    1W        W52134  16.107   6.528   8.860 -0.1149  0.3216 -0.1341
    1W        W52135  21.359   4.561   4.078  0.0788 -0.2192 -0.0781
    1W        W52136  27.235  26.063   6.554 -0.2190 -0.5412 -0.4122
    1W        W52137  12.715  29.016   0.934  0.0900  0.0390  0.1089
    1W        W52138  27.589  22.988   2.707  0.2909  0.1599 -0.0003
    1W        W52139  28.548  13.411   0.976 -0.0649  0.0024 -0.0405
    1W        W52140  13.702   8.450   9.149  0.0663  0.3522  0.4584
    1W        W52141   5.852   1.177   8.959 -0.0206  0.2620  0.3191
    1W        W52142   8.482  20.491   8.641  0.2976 -0.1436 -0.1401
    1W        W52143   9.733   7.563   1.809  0.0851  0.2770  0.3092
    1W        W52144  20.192  28.725   2.461 -0.1040  0.0735 -0.0436
    1W        W52145  27.003  20.812   8.888  0.1022 -0.0859  0.2548
    1W        W52146  19.447  28.187   2.639 -0.0522  0.0712  0.1937
    1W        W52147   4.841  11.685   8.046 -0.0867  0.0859 -0.1749
    1W        W52148   0.858   8.579   7.693 -0.5020  0.2397  0.2524
    1W        W52149  18.053   8.640   9.055  0.3234  0.2503  0.0277
    1W        W52150   4.882   1.892   0.752 -0.1016 -0.1618 -0.1925
    1W        W52151  16.933  12.627   2.732 -0.1590 -0.1849 -0.0368
    1W        W52152  26.154  16.017   0.809  0.1649  0.1516 -0.0409
    1W        W52153   1.608  22.353   0.811  0.0047 -0.0436  0.4690
    1W        W52154  28.789  29.645   9.279 -0.2428 -0.4463  0.0702
    1W        W52155  14.109   2.253   8.439  0.0568  0.0392 -0.0554
    1W        W52156  11.078  17.959   2.443  0.0355  0.1107  0.3387
    1W        W52157  15.733  19.667   1.002 -0.0150 -0.0905 -0.0270
    1W        W52158  27.194   2.111   1.393  0.2034 -0.0991 -0.0835
    1W        W52159  27.559  24.495   1.321 -0.1918  0.1667  0.3061
    1W        W52160  26.776  24.261   7.815 -0.2200 -0.0330  0.2137
    1W        W52161  24.956  16.843   0.085 -0.3887  0.1692  0.2508
    1W        W52162  23.926  18.966   8.318 -0.1026  0.0927 -0.4665
    1W        W52163  26.709  28.077   7.416 -0.1983 -0.2133  0.1833
    1W        W52164  11.873   9.595   1.818  0.2712 -0.0419 -0.3170
    1W        W52165   3.634  26.687   8.705  0.0328  0.1319  0.0697
    1W        W52166  22.398  17.005   8.067  0.1236  0.1944 -0.2901
    1W        W52167  13.360  25.657   6.221 -0.1623  0.3919  0.1788
    1W        W52168   0.948  28.872   1.222 -0.0236  0.2751 -0.1952
    1W        W52169  12.378   8.521   2.106 -0.0679 -0.1184  0.3454
    1W        W52170  26.612  15.372   1.689  0.0025  0.3444 -0.1833
    1W        W52171  16.205   4.788   3.212 -0.1781  0.0993  0.3127
    1W        W52172  29.548  15.485   2.056 -0.0534  0.0934  0.1827
    1W        W52173  26.389  12.882   9.194  0.1645 -0.2332  0.2733
    1W        W52174   3.403   7.018   8.758 -0.0585  0.2126  0.1010
    1W        W52175  27.136   3.989   1.574  0.0079  0.0473 -0.1152
    1W        W52176   3.967   7.187   1.553 -0.1563 -0.3669  0.1347
    1W        W52177   6.631  23.920   1.280 -0.0368  0.2105 -0.1016
    1W        W52178  23.096  25.428   7.234 -0.0004  0.0587 -0.0805
    1W        W52179   6.804  20.876   6.167  0.0171 -0.2304 -0.2479
    1W        W52180  27.828  25.015   1.098  0.1801 -0.1221 -0.3035
    1W        W52181  22.919   8.374   7.831 -0.2191 -0.2146  0.0442
    1W        W52182  13.704  22.840   0.320  0.0142 -0.0757  0.2937
    1W        W52183   5.462  20.231   7.055 -0.2132  0.2247  0.3012
    1W        W52184  23.662  29.298   1.785 -0.0214  0.1209 -0.3201
    1W        W52185   2.140   6.314   2.679 -0.0295 -0.1766  0.2899
    1W        W52186   1.212  17.578   1.742 -0.1938  0.0975 -0.3467
    1W        W52187  24.345  13.958   9.265  0.0222  0.0125 -0.2685
    1W        W52188  28.496  29.273   1.160  0.1352 -0.0437  0.1620
    1W        W52189   6.795  24.631   8.454 -0.0679  0.2338 -0.0074
    1W        W52190  13.274   4.585   2.523 -0.0279 -0.0176 -0.0937
    1W        W52191   6.835  17.828   6.653  0.1898  0.0084 -0.0136
    1W        W52192  14.449  22.863   1.747 -0.0873  0.0053 -0.1750
    1W        W52193  15.692   4.128   2.863 -0.0116  0.1482 -0.1440
    1W        W52194  23.772  21.985   7.799  0.0811 -0.0025 -0.2409
    1W        W52195  28.437  24.898   0.259  0.1108  0.2084 -0.4719
    1W        W52196   4.365   0.392   2.001  0.1626 -0.0337  0.4330
    1W        W52197  15.381  24.460   5.886  0.0477  0.0852  0.1229
    1W        W52198  29.266  22.322   1.709  0.2210  0.0448 -0.0689
    1W        W52199  22.382  11.465   6.939 -0.2035  0.0070 -0.1280
    1W        W52200  17.619  14.837   7.570 -0.0248  0.0624  0.1463
    1W        W52201  20.257   1.551   2.310 -0.1319  0.0739 -0.0199
    1W        W52202  18.696   1.438   8.927  0.2280 -0.0324 -0.1014
    1W        W52203  19.177   1.025   2.897  0.1178  0.2767 -0.1101
    1W        W52204  10.266   3.431   2.055  0.2331  0.2276  0.0006
    1W        W52205   1.408   0.178   6.936 -0.3386 -0.1650 -0.4675
    1W        W52206   6.969  13.799   8.548  0.0933 -0.0047 -0.1794
    1W        W52207  28.737  17.961   1.338 -0.1983  0.0981  0.0673
    1W        W52208  27.032  18.898   1.331 -0.1783  0.2477 -0.1771
    1W        W52209  28.270   6.728   9.092  0.0399 -0.1459  0.1236
    1W        W52210  29.805  12.318   8.135 -0.1288 -0.2246 -0.2631
    1W        W52211   3.243  16.046   7.682  0.0755 -0.2090  0.2443
    1W        W52212  13.954  15.950   6.826 -0.2456  0.3156 -0.1066
    1W        W52213  12.930  29.482   8.079  0.0777  0.1341 -0.1090
    1W        W52214   5.418   8.106   3.589 -0.1497  0.0793  0.0510
    1W        W52215   7.733  11.085   1.993 -0.0635  0.2398  0.2388
    1W        W52216  10.897  27.735   2.331 -0.1962  0.1274  0.1850
    1W        W52217  29.026  28.936   6.741 -0.1470 -0.0984 -0.1781
    1W        W52218  29.327   2.471   1.309 -0.3652  0.2726 -0.2354
    1W        W52219  23.985   1.062   9.162 -0.2748  0.0169  0.3941
    1W        W52220  23.186   8.434   3.125  0.3956 -0.0606  0.0679
    1W        W52221  14.795   4.596   1.682  0.1481 -0.2371 -0.0530
    1W        W52222   2.804  13.910   5.872 -0.2387 -0.0993 -0.1759
    1W        W52223  20.204  21.200   1.323  0.1554 -0.0331 -0.2207
    1W        W52224   0.162   9.770   7.764 -0.1834  0.2335  0.2163
    1W        W52225  16.977  15.520   7.164  0.1774 -0.0254  0.1559
    1W        W52226  26.093   4.724   0.310 -0.1826 -0.0035 -0.0134
    1W        W52227   7.537   5.159   3.431 -0.1847  0.1646 -0.1611
    1W        W52228   8.140  29.450   8.977  0.1203  0.1402 -0.0117
    1W        W52229   6.372  20.632   2.337  0.4665 -0.1452 -0.1377
    1W        W52230  10.157   2.136   0.698 -0.1143 -0.0705  0.1665
    1W        W52231   8.834  20.378   0.851  0.2077 -0.1102 -0.0609
    1W        W52232  10.939  14.313   9.218  0.2167 -0.1460  0.1161
    1W        W52233  25.754   9.524   7.590  0.1348 -0.0518  0.1178
    1W        W52234   0.694   0.322   6.573 -0.1955 -0.1443  0.1317
    1W        W52235  15.956   5.616   2.967  0.0982 -0.2387  0.0458
    1W        W52236  25.237   9.505   2.228 -0.1428  0.0778 -0.0039
    1W        W52237  27.127   4.264   0.249 -0.3394 -0.4842  0.2347
    1W        W52238   1.609  25.984   8.684  0.4600  0.0162 -0.2865
    1W        W52239  22.183   8.934   2.316  0.0979 -0.0024 -0.1635
    1W        W52240   3.024  20.480   9.458  0.0387  0.1024 -0.2102
    1W        W52241  20.015  25.708   2.238 -0.3149  0.0008  0.1799
    1W        W52242  29.506  10.502   2.085 -0.3463  0.2116 -0.1995
    1W        W52243  24.718  17.356   0.855 -0.1148  0.2872 -0.0648
    1W        W52244  13.113   6.398   1.351 -0.0049 -0.2724  0.0003
    1W        W52245  19.351  11.356   2.204  0.2352 -0.0904 -0.0130
    1W        W52246  13.200   4.590   1.982 -0.3501  0.5151 -0.1482
    1W        W52247  13.714  19.236   7.724 -0.0637  0.2592 -0.3029
    1W        W52248  20.227  20.618   1.536 -0.0862  0.1066 -0.1033
    1W        W52249   4.537  14.348   8.494  0.3368  0.0525 -0.0771
    1W        W52250   8.461   5.307   0.791 -0.2486 -0.0367 -0.1227
    1W        W52251   0.420  19.275   2.071 -0.0782  0.3491 -0.1136
    1W        W52252   3.474  28.387   6.798 -0.2647  0.0808 -0.0273
    1W        W52253   2.903  22.877   6.712  0.2375 -0.1194  0.0418
    1W        W52254  24.406  15.502   7.427  0.0270  0.0476  0.4191
    1W        W52255  27.502  18.952   0.534  0.1308  0.0507 -0.0344
    1W        W52256  27.296  20.589   7.819  0.0362 -0.3272 -0.0215
    1W        W52257  19.167   0.626   9.467 -0.2870 -0.3206 -0.0986
    1W        W52258  21.400  20.797   1.200 -0.0471 -0.0634  0.0494
    1W        W52259  19.954  11.390   1.461 -0.1185 -0.0791 -0.0073
    1W        W52260  20.170  12.939   7.147  0.4349 -0.3500  0.2804
    1W        W52261  11.551  26.968   9.484 -0.0053 -0.0014  0.4813
    1W        W52262   8.008   6.352   9.074  0.0259  0.1080 -0.1495
    1W        W52263  17.178  28.027   9.278 -0.2703 -0.0019 -0.1815
    1W        W52264   6.112  27.780   0.430  0.0413 -0.3274 -0.2804
    1W        W52265  11.266  17.312   8.601  0.0939  0.2515  0.1141
    1W        W52266  14.369   4.523   7.932  0.3443 -0.0104  0.2849
    1W        W52267  15.867  23.902   6.247 -0.0704 -0.4264 -0.1970
    1W        W52268  14.761  16.150   6.694 -0.2439 -0.1799 -0.0270
    1W        W52269  12.786   4.933   1.381 -0.1900 -0.0972  0.1348
    1W        W52270  23.722  12.488   8.576  0.2223  0.2831 -0.1532
    1W        W52271  13.417   7.802   7.657  0.3973 -0.0391  0.5587
    1W        W52272   0.499   1.378   2.322  0.2517 -0.1303  0.1574
    1W        W52273  15.136  24.567   1.136  0.0237 -0.2277 -0.0490
    1W        W52274  27.915  29.430   8.163 -0.2636 -0.3195 -0.0472
    1W        W52275   1.499  20.728   1.276 -0.2817  0.0555 -0.3578
    1W        W52276  10.281  18.795   0.225 -0.1323 -0.1993 -0.1822
    1W        W52277  20.450  15.180   6.918 -0.2442 -0.1463  0.0634
    1W        W52278  15.127  11.974   8.603 -0.0956  0.0560  0.1259
    1W        W52279  17.554  18.785   0.187 -0.2145 -0.1292 -0.4191
    1W        W52280   8.163   8.101   7.388 -0.3647  0.1204  0.0489
    1W        W52281  27.620   2.302   7.663  0.0688  0.0830  0.0243
    1W        W52282   8.349   4.422   1.312  0.1186 -0.1093 -0.0218
    1W        W52283  21.374  24.311   7.184  0.0227  0.4716  0.1778
    1W        W52284   7.716   2.312   0.525  0.0268  0.1124 -0.2650
    1W        W52285  19.382  20.708   7.584  0.0316 -0.2379 -0.0100
    1W        W52286   4.238  25.387   9.278 -0.0224  0.0817  0.0520
    1W        W52287   4.627  10.858   6.724 -0.1796  0.1339 -0.2184
    1W        W52288   7.855   6.764   2.702  0.0715  0.1092 -0.2095
    1W        W52289  16.890   2.456   9.283 -0.0330  0.1322  0.4131
    1W        W52290  29.744  22.606   9.434 -0.1283  0.2847  0.2033
    1W        W52291  18.191  18.743   0.246 -0.0429 -0.0732 -0.0970
    1W        W52292   3.606  21.880   1.391 -0.0749 -0.0227  0.0871
    1W        W52293  10.954  15.526   7.464  0.1736 -0.0786  0.0749
    1W        W52294   7.368   2.015   9.245  0.0692  0.0697 -0.1630
    1W        W52295  27.432   1.316   1.941  0.1070  0.0291  0.1539
    1W        W52296  29.703  17.952   6.175 -0.1558  0.1091 -0.1763
    1W        W52297  25.739  25.749   7.520 -0.1118  0.0924  0.0290
    1W        W52298   3.812  23.497   2.361 -0.0010  0.1593 -0.3342
    1W        W52299   7.979   9.411   7.453  0.2586  0.0270  0.1952
    1W        W52300   9.338  28.098   7.224 -0.0350  0.1125  0.0767
    1W        W52301  29.601  27.806   0.156 -0.1247 -0.0615 -0.0100
    1W        W52302   9.205  11.229   3.235 -0.0101  0.0677  0.0792
    1W        W52303  17.527  27.313   1.375 -0.3429 -0.0082 -0.2398
    1W        W52304  12.532  23.643   8.134  0.0327  0.0657 -0.4622
    1W        W52305   6.362   0.598   1.189  0.2099  0.0369  0.1560
    1W        W52306  12.325  13.042   0.808  0.0369 -0.1565  0.0440
    1W        W52307  19.392  20.241   7.872 -0.0079  0.0953  0.0730
    1W        W52308   2.272   2.937   2.170 -0.0359 -0.1464 -0.3401
    1W        W52309   4.910  20.645   8.688 -0.2324  0.5763 -0.2158
    1W        W52310   8.053   5.665   8.789 -0.2294  0.1346  0.0319
    1W        W52311  19.311   0.750   8.961  0.0348 -0.1185 -0.1156
    1W        W52312   0.790  14.687   8.222 -0.1663  0.0950  0.0584
    1W        W52313   0.096  25.685   1.811 -0.1887 -0.1009  0.2098
    1W        W52314   7.885   8.771   6.833  0.1466 -0.1606  0.1793
    1W        W52315  15.406  12.836   2.476  0.0502 -0.1909 -0.2715
    1W        W52316  29.067  25.718   7.165  0.0613  0.3146 -0.0226
    1W        W52317  24.262   5.830   9.215  0.1899 -0.1159  0.1619
    1W        W52318  22.666   2.330   8.804  0.0681 -0.0899  0.2922
    1W        W52319   7.705  10.286   3.433  0.1190  0.1158 -0.2059
    1W        W52320  17.043  16.865   1.021  0.0786  0.0826 -0.1939
    1W        W52321  27.297   9.914   0.219  0.2354 -0.3518  0.0489
    1W        W52322  10.882  16.178   8.652  0.0447 -0.1054 -0.0015
    1W        W52323  22.923  12.512   9.446 -0.1664 -0.2821 -0.0776
    1W        W52324  10.421   1.510   8.338  0.0390  0.2637  0.1111
    1W        W52325   5.915  20.677   2.241  0.0334  0.0876 -0.0926
    1W        W52326  20.483  12.996   1.373  0.1245 -0.3616 -0.0872
    1W        W52327  10.601  15.475   9.506 -0.0773 -0.1265  0.2531
    1W        W52328   9.299   7.513   0.768 -0.1018  0.3964  0.0299
    1W        W52329   0.204  21.641   8.109 -0.1243  0.2742  0.2191
    1W        W52330   6.995  18.006   8.562  0.1501 -0.0530 -0.1376
    1W        W52331  26.820  21.720   1.551  0.0783 -0.0211  0.1668
    1W        W52332  24.875  27.534   6.522 -0.3870 -0.5380  0.3391
    1W        W52333  25.894  23.102   1.113  0.2797  0.2175 -0.3534
    1W        W52334  16.438  22.366   8.021 -0.0745  0.1546 -0.1855
    1W        W52335  16.528   1.352   8.520  0.2186 -0.1437 -0.1171
    1W        W52336   4.935  20.806   1.974 -0.0767  0.1148 -0.0635
    1W        W52337  11.946  15.158   6.313 -0.0540 -0.0865 -0.2327
    1W        W52338  24.570   0.442   3.933 -0.1618  0.0623  0.0649
    1W        W52339   2.942  10.963   2.725  0.3832 -0.1809  0.0697
    1W        W52340  17.180  10.907   7.247 -0.1952  0.2316 -0.1143
    1W        W52341   9.010  28.343   1.269 -0.3216 -0.0616 -0.3112
    1W        W52342  13.457  23.925   0.209  0.1222 -0.0125  0.2771
    1W        W52343  15.055  16.246   1.835  0.3270  0.0206  0.1803
    1W        W52344  22.951  15.019   7.869 -0.0531  0.1374 -0.0589
    1W        W52345   5.962  19.711   2.049  0.0620  0.0138  0.0385
    1W        W52346  21.369   4.827   1.682 -0.0980 -0.0622  0.2127
    1W        W52347   4.060  23.911   2.074 -0.1288  0.2603 -0.1409
    1W        W52348   0.084  16.850   7.054  0.2326  0.3130 -0.2919
    1W        W52349   8.799  12.266   1.680 -0.2036 -0.2348  0.0303
    1W        W52350  14.905  14.678   7.815  0.2549 -0.2078  0.1248
    1W        W52351  13.252   0.770   8.879  0.1809 -0.0461 -0.0334
    1W        W52352  20.937  22.368   0.557 -0.0010 -0.3552  0.3146
    1W        W52353   1.565   7.095   9.393  0.3793 -0.0832  0.1011
    1W        W52354   0.461   7.881   7.726  0.1371 -0.1733  0.0063
    1W        W52355   1.059   5.260   0.935 -0.3096 -0.2068 -0.3024
    1W        W52356  13.494  22.113   5.670  0.1724 -0.0437 -0.2323
    1W        W52357  11.186  15.930   9.054 -0.1928 -0.0077 -0.1109
    1W        W52358  15.551  15.813   0.522  0.0692  0.2666  0.0792
    1W        W52359  14.372  22.895   6.041 -0.0292 -0.2322  0.2127
    1W        W52360  19.062  25.008   5.581 -0.0258  0.0512 -0.3051
    1W        W52361  22.596   1.544   0.682  0.0008  0.2932  0.0031
    1W        W52362  24.344   1.189   2.131  0.2584  0.1825  0.0278
    1W        W52363  26.190   6.629   8.595  0.0427 -0.0243 -0.0898
    1W        W52364   7.324  25.931   7.044  0.0116  0.1650  0.0663
    1W        W52365  14.681   3.261   1.367  0.1368 -0.0846 -0.0836
    1W        W52366  19.922  14.780   2.652  0.0205  0.1959 -0.2342
    1W        W52367  17.622  23.031   8.154  0.0920  0.0084 -0.0312
    1W        W52368  27.845  20.131   7.309 -0.1430  0.2637  0.2211
    1W        W52369  18.318   2.037   3.543  0.0944  0.2948  0.0478
    1W        W52370  24.495  19.248   2.321  0.0345 -0.1977  0.1798
    1W        W52371  10.617   5.208   2.385 -0.2198  0.0965  0.1744
    1W        W52372   0.025   2.433   0.015 -0.2767  0.3838  0.3818
    1W        W52373   4.236   5.286   6.523 -0.1697  0.0575 -0.1984
    1W        W52374  14.187  15.812   8.708  0.0001 -0.0510  0.0828
    1W        W52375  12.266  18.569   7.427 -0.1590 -0.2374  0.0838
    1W        W52376  19.889   6.178   0.702  0.2604  0.3805 -0.2227
    1W        W52377  12.406  19.984   8.653  0.0315  0.1680 -0.0783
    1W        W52378  26.702  17.553   7.580 -0.1285  0.0411  0.1705
    1W        W52379  12.109  29.506   2.586  0.0948  0.0048  0.2740
    1W        W52380  16.257  15.203   9.199 -0.1649 -0.1108 -0.0409
    1W        W52381  26.458   2.119   2.505  0.0352  0.1918  0.2942
    1W        W52382  16.161  15.079   8.611  0.4222  0.0257 -0.0233
    1W        W52383  26.566  25.802   9.479  0.3470  0.0352  0.1043
    1W        W52384  28.410   6.738   1.824 -0.0446 -0.1094  0.1305
    1W        W52385   3.169   7.718   8.306 -0.1952 -0.1328 -0.0435
    1W        W52386  19.334  15.732   7.696  0.3644  0.0840 -0.3333
    1W        W52387  14.817  10.710   2.026 -0.1146  0.2032 -0.3804
    1W        W52388  28.511  24.522   9.377 -0.2957  0.2070  0.0478
    1W        W52389  22.100  26.890   7.263 -0.0859  0.0673 -0.3540
    1W        W52390  25.251   8.981   2.249 -0.0487 -0.0920 -0.0811
    1W        W52391  25.733   3.679   2.796  0.1040  0.0326  0.1745
    1W        W52392   6.347   4.455   8.374 -0.5236 -0.1692 -0.0773
    1W        W52393  23.124   2.472   8.566 -0.1923  0.2199 -0.1885
    1W        W52394  10.838  21.656   9.218  0.0577  0.1778  0.0880
    1W        W52395   3.823  13.841   8.933 -0.0085 -0.1519  0.0599
    1W        W52396  26.802  22.162   6.165  0.1654  0.2275  0.0278
    1W        W52397  26.547   0.449   7.370  0.1905 -0.2628 -0.1106
    1W        W52398  21.522   2.076   0.610  0.0197 -0.1181  0.1648
    1W        W52399  12.448   1.157   2.131  0.0562  0.1836 -0.2156
    1W        W52400  10.845  21.382   7.330 -0.1412  0.2189  0.2060
    1W        W52401   0.079  22.040   8.420 -0.1515 -0.0851 -0.2567
    1W        W52402   4.144   3.946   1.767  0.3162  0.2654 -0.1638
    1W        W52403  14.092  26.729   7.975  0.1468 -0.0109  0.1233
    1W        W52404   7.611  23.198   8.412  0.0085 -0.1966 -0.1501
    1W        W52405  19.985  24.026   0.716 -0.2276 -0.0891  0.2525
    1W        W52406  29.734  18.504   6.579 -0.1283  0.0312 -0.1504
    1W        W52407  23.027  29.190   9.036 -0.0997  0.1556 -0.0233
    1W        W52408   6.404   4.401   7.811  0.1210 -0.1761  0.1531
    1W        W52409  20.964  16.738   1.399  0.1642  0.0594  0.5452
    1W        W52410   4.662   2.083   8.559 -0.4181  0.1672 -0.0921
    1W        W52411   9.436  26.184   1.710 -0.0656 -0.1068  0.0052
    1W        W52412  21.275  13.999   0.986 -0.1444  0.4165  0.0316
    1W        W52413  20.750  29.338   0.915  0.0489 -0.0008  0.2235
    1W        W52414  28.706   7.826   8.612  0.0129  0.1178 -0.1144
    1W        W52415  12.855  26.710   9.378  0.3007  0.2877 -0.1553
    1W        W52416  17.470   5.858   1.106 -0.0662  0.0462 -0.0570
    1W        W52417   1.100  22.796   6.117 -0.0453  0.1845 -0.1686
    1W        W52418  12.021  28.627   1.765  0.3149  0.2008  0.0812
    1W        W52419  20.668  22.523   0.058 -0.2763  0.0796 -0.3433
    1W        W52420  21.528  15.009   0.374  0.1928  0.3019  0.1243
    1W        W52421  15.457  12.098   7.510  0.1153 -0.2109 -0.0851
    1W        W52422   8.876   4.660   9.113  0.3118  0.0170 -0.1004
    1W        W52423  22.127  10.219   7.496  0.1451 -0.5344  0.0543
    1W        W52424   4.356   8.886   0.731  0.0656  0.5344 -0.1362
    1W        W52425   4.335   1.930   2.468 -0.1652 -0.3151 -0.0173
    1W        W52426   9.394  16.338   1.630 -0.1784  0.0937 -0.1803
    1W        W52427  27.666  16.405   0.857  0.0723  0.1960  0.1967
    1W        W52428  23.225   2.331   1.826 -0.2123  0.0061 -0.2111
    1W        W52429  10.623  21.509   0.150 -0.0307  0.1949  0.1590
    1W        W52430   8.535   9.130   0.623 -0.2963  0.2040  0.0676
    1W        W52431  16.555  23.159   1.376 -0.3084 -0.2652 -0.2580
    1W        W52432  20.875  17.619   7.751  0.0485  0.0004  0.1818
    1W        W52433  23.950   5.083   0.664  0.0241 -0.1309  0.1518
    1W        W52434   7.215  23.227   8.776  0.1021 -0.1103  0.0094
    1W        W52435  15.628  20.668   4.816  0.2397 -0.1177  0.1147
    1W        W52436   3.360   4.249   1.828  0.1982  0.0040  0.0897
    1W        W52437  24.570  21.141   8.061  0.1027  0.0116  0.1011
    1W        W52438  23.596   1.375   9.156 -0.1592 -0.1768 -0.1067
    1W        W52439  28.833   0.015   0.233  0.1271  0.3648 -0.6425
    1W        W52440  18.149  21.031   8.945  0.0855 -0.0779 -0.5645
    1W        W52441  13.727  25.923   9.055  0.1942 -0.1588 -0.1396
    1W        W52442   1.585   6.083   8.666  0.1314  0.3219 -0.3115
    1W        W52443  21.200   5.990   1.814 -0.0336  0.0115  0.1160
    1W        W52444  10.744  17.906   8.368 -0.1255  0.1455  0.0911
    1W        W52445  22.856  20.587   6.280 -0.1182  0.4418 -0.0505
    1W        W52446  10.847  14.086   0.151  0.1097 -0.0443  0.0081
    1W        W52447  20.922   7.397   1.897 -0.1457 -0.1246  0.1755
    1W        W52448  17.712  24.624   6.077  0.0163  0.0283 -0.1525
    1W        W52449  10.387  27.043   2.785  0.0735  0.0690  0.0698
    1W        W52450   1.580   6.793   0.635  0.0588 -0.0806  0.3296
    1W        W52451  21.197  18.527   7.368 -0.0200  0.0313  0.0470
    1W        W52452  14.519   7.262   0.490 -0.1146  0.0571  0.0073
    1W        W52453  23.232   5.522   4.503  0.1361 -0.0019  0.3977
    1W        W52454  11.118  26.983   6.890  0.2543  0.1575 -0.0489
    1W        W52455   4.063  17.445   8.727 -0.1575  0.0306 -0.1923
    1W        W52456  17.042  14.855   1.004  0.1082 -0.0952 -0.0834
    1W        W52457  29.255   4.888   8.541  0.0758 -0.1473 -0.0205
    1W        W52458  13.711  10.922   9.116  0.1474  0.2186 -0.1341
    1W        W52459  18.171  21.680   7.098  0.3706  0.2804  0.3470
    1W        W52460   3.240  29.169   7.320  0.0546  0.0923  0.0556
    1W        W52461  10.605  26.895   8.730  0.0387  0.1224  0.2217
    1W        W52462   8.667  28.940   8.173 -0.2065  0.0733  0.2112
    1W        W52463   4.863  12.912   2.572 -0.1397  0.2300 -0.1345
    1W        W52464  24.004   1.394   1.005  0.1540  0.3023  0.3460
    1W        W52465   9.864  24.861   7.142 -0.1424  0.0188  0.1883
    1W        W52466   5.220  17.369   7.677  0.1916  0.3121 -0.0846
    1W        W52467   5.250   0.042   8.627 -0.1604  0.4952  0.2590
    1W        W52468  18.670   0.560   0.619  0.0715 -0.2328  0.0067
    1W        W52469  14.937   0.280   0.871 -0.0239  0.1066 -0.1167
    1W        W52470   2.016  18.287   0.065  0.2518 -0.1185  0.2450
    1W        W52471  18.084   4.182   8.711  0.1912  0.1532 -0.2805
    1W        W52472  24.717  27.256   9.391 -0.1891 -0.0280  0.0699
    1W        W52473  11.122  29.094   8.719  0.2478 -0.0124  0.3874
    1W        W52474  14.489  15.716   2.660  0.2131 -0.2358 -0.0492
    1W        W52475  20.421  27.748   7.443 -0.4472 -0.0799 -0.1915
    1W        W52476   5.635  21.874   1.669 -0.0001  0.2325 -0.1949
    1W        W52477  26.520  19.177   9.314 -0.0557 -0.0991  0.0393
    1W        W52478   4.726  29.198   7.409  0.0082 -0.0013  0.2230
    1W        W52479  26.060  11.085   1.610 -0.2236 -0.1315 -0.0245
    1W        W52480   5.352   1.159   1.610 -0.0783  0.3723  0.1792
    1W        W52481   7.226  27.340   7.023 -0.1462 -0.6095  0.4258
    1W        W52482  22.480  28.462   9.254  0.1555  0.0306  0.2028
    1W        W52483  21.477   0.620   0.435 -0.0360 -0.1507 -0.1186
    1W        W52484  25.319   0.147   1.904  0.1142 -0.1561 -0.0994
    1W        W52485  28.786   8.566   1.787  0.2052  0.2102 -0.1025
    1W        W52486  13.972   7.849   8.924 -0.2960 -0.1900 -0.0298
    1W        W52487  12.766  12.361   9.333  0.0386 -0.1506  0.0283
    1W        W52488  18.393   3.631   1.836  0.1270  0.0525  0.1053
    1W        W52489  23.804  20.377   2.843  0.1063  0.0480  0.2799
    1W        W52490  12.664   1.022   7.261 -0.3303  0.1970  0.0028
    1W        W52491   4.751  22.263   7.604 -0.0433 -0.3624  0.2374
    1W        W52492  20.764  14.589   1.587 -0.1958 -0.0702 -0.0287
    1W        W52493  24.887   7.709   1.965  0.1341 -0.0945  0.1567
    1W        W52494   6.568  10.365   2.169 -0.1499 -0.1058 -0.1712
    1W        W52495  20.099   9.217   2.583 -0.2135 -0.1300 -0.3014
    1W        W52496  13.662   0.391   3.603 -0.0853 -0.3462  0.0742
    1W        W52497  15.025  17.583   1.948 -0.1878 -0.1106 -0.3413
    1W        W52498  29.767  10.336   9.353  0.2553 -0.0139 -0.0991
    1W        W52499  25.829  24.267   2.630 -0.1248 -0.3908 -0.0909
    1W        W52500  13.965   4.628   9.190 -0.1053 -0.3778 -0.3055
    1W        W52501  25.186  19.547   1.276  0.1303 -0.0818  0.2296
    1W        W52502  14.193  17.501   7.342 -0.0388  0.0377 -0.3030
    1W        W52503  13.958  19.943   6.735  0.1667 -0.1158  0.0696
    1W        W52504  20.654  19.728   8.395 -0.0658  0.6186  0.2506
    1W        W52505   5.750   4.873   2.460 -0.0532  0.0702  0.1267
    1W        W52506  11.543  14.283   7.360 -0.2358 -0.1943 -0.1862
    1W        W52507  27.214  12.706   0.109 -0.1709 -0.2042  0.2672
    1W        W52508   6.137  22.014   0.849  0.1327 -0.2365  0.5198
    1W        W52509  20.800  10.839   8.606  0.0703  0.0602 -0.0176
    1W        W52510  15.859  22.314   9.503  0.1089 -0.1846  0.1662
    1W        W52511  10.146  25.896   1.254 -0.1210  0.0045 -0.1917
    1W        W52512  22.477   4.921   2.574  0.3236  0.2490 -0.2161
    1W        W52513  11.116  28.526   1.889  0.2565  0.0150  0.0460
    1W        W52514  10.957  28.003   1.097 -0.0645 -0.0887 -0.2526
    1W        W52515  12.042  25.873   0.338  0.3961  0.4068 -0.2273
    1W        W52516  20.057  28.542   0.521  0.0208 -0.0318 -0.0890
    1W        W52517   5.533  26.059   9.321  0.0702 -0.2752 -0.0035
    1W        W52518  16.517  23.014   7.661  0.0722  0.1597  0.0568
    1W        W52519  24.114   3.928   2.667  0.1552 -0.0526 -0.1887
    1W        W52520   2.820  17.235   8.375 -0.1611  0.0486 -0.1028
    1W        W52521  17.314   0.324   8.160 -0.0203  0.5173 -0.0362
    1W        W52522  27.969  10.217   7.580  0.0698  0.0885  0.3076
    1W        W52523  26.349  23.392   2.494  0.1826 -0.1169  0.0938
    1W        W52524  11.568  17.441   6.126  0.0356  0.2658 -0.1312
    1W        W52525  14.697   8.817   1.070  0.0553 -0.0911  0.1595
    1W        W52526   9.839  27.256   6.970  0.1452  0.1932  0.0598
    1W        W52527   8.093   8.889   7.809 -0.0293  0.0882 -0.1627
    1W        W52528   7.871   8.305   8.489  0.0136 -0.1729  0.4984
    1W        W52529  27.880  18.159   9.501 -0.2910 -0.0599  0.4212
    1W        W52530  27.768  20.069   8.892  0.0794  0.3848  0.2393
    1W        W52531   4.238   2.680   0.083 -0.0647 -0.0619  0.1591
    1W        W52532  27.588   4.144   1.442  0.0421 -0.3114  0.1146
    1W        W52533   2.640  28.326   1.542 -0.1571 -0.0530  0.1043
    1W        W52534  18.338   6.188   2.344 -0.1857 -0.0267  0.0900
    1W        W52535  19.017  12.413   1.780 -0.1483 -0.0852  0.2687
    1W        W52536  15.608   3.481   2.742  0.2452  0.0628  0.2385
    1W        W52537   7.361   6.048   6.646 -0.3963  0.0201 -0.0352
    1W        W52538   0.982   8.416   0.645 -0.2668  0.2151  0.1966
    1W        W52539  29.097  21.535   1.571 -0.0303  0.1225 -0.1624
    1W        W52540   9.237  23.683   9.075  0.1116  0.1082 -0.2162
    1W        W52541  10.864   3.549   1.270 -0.1652  0.2619 -0.0248
    1W        W52542   3.375  11.194   7.673  0.1681 -0.3853 -0.0802
    1W        W52543  18.948  25.381   5.973  0.1496 -0.3444  0.1000
    1W        W52544  16.495  29.701   2.141  0.1750 -0.1988  0.1380
    1W        W52545  19.596  22.553   2.396  0.0479  0.3058  0.0787
    1W        W52546  22.299  10.881   0.061 -0.1257  0.1886 -0.0168
    1W        W52547  23.908   2.223   9.204 -0.0046 -0.2860  0.0837
    1W        W52548   0.217   3.269   0.442 -0.1959 -0.2027 -0.1523
    1W        W52549  15.258  25.113   1.126 -0.0390  0.1423 -0.0585
    1W        W52550  22.702  26.849   2.170  0.0174  0.2299  0.0124
    1W        W52551  28.686  29.594   6.740 -0.2183 -0.0123 -0.2997
    1W        W52552  24.834  27.710   8.779 -0.3266 -0.0035 -0.0270
    1W        W52553   9.713  11.125   1.210 -0.3013 -0.2067  0.0936
    1W        W52554  26.054   2.244   8.852  0.0705  0.0619  0.2018
    1W        W52555   5.341   6.962   6.868  0.0473 -0.1375 -0.2495
    1W        W52556  15.411  12.475   7.124  0.3129  0.2012  0.1692
    1W        W52557   4.943  12.969   8.590 -0.1713 -0.0938  0.4983
    1W        W52558  20.770   9.090   8.521 -0.1533  0.0830  0.1674
    1W        W52559  25.050  29.857   1.170  0.0248  0.2072  0.1820
    1W        W52560  23.094  13.513   9.357 -0.0929  0.1338 -0.1611
    1W        W52561  18.995   7.618   7.740 -0.1333 -0.0695  0.1167
    1W        W52562  13.614   1.938   0.341  0.5915  0.1606 -0.2966
    1W        W52563  12.346  22.917   1.396  0.2823 -0.1233  0.2492
    1W        W52564  13.587   2.511   2.609 -0.2112  0.1278  0.2320
    1W        W52565  25.393  27.041   8.391  0.2553  0.0256  0.0065
    1W        W52566  17.825   7.540   9.209  0.0521 -0.0571 -0.1866
    1W        W52567  17.117   1.951   3.520 -0.2535  0.1499  0.0196
    1W        W52568   5.187  10.900   2.234  0.0580 -0.1098 -0.0384
    1W        W52569  28.650   7.999   7.475 -0.1030 -0.1638  0.0504
    1W        W52570  10.395  17.709   8.026 -0.1490  0.0671  0.2526
    1W        W52571   4.090  11.597   9.017  0.2274  0.1792  0.0851
    1W        W52572  17.818  10.835   0.301 -0.2532  0.1797  0.2427
    1W        W52573   3.843   7.831   8.835 -0.0725  0.3689 -0.4111
    1W        W52574  20.708  18.436   0.335  0.1124 -0.2408  0.1122
    1W        W52575  28.381   3.055   6.787 -0.2056 -0.1318 -0.0475
    1W        W52576   5.385  10.833   7.942  0.2639 -0.1385 -0.1480
    1W        W52577  28.712  27.246   0.406 -0.0271  0.1960  0.0686
    1W        W52578  16.841   2.513   0.776  0.1529 -0.1940  0.3101
    1W        W52579  18.488  20.919   7.662  0.3659 -0.1782  0.0461
    1W        W52580   8.105  17.358   5.828  0.2094 -0.0695 -0.1939
    1W        W52581   3.951  19.860   1.128 -0.0427 -0.0374 -0.1354
    1W        W52582   1.587  28.924   1.729  0.0693 -0.3324  0.0717
    1W        W52583   8.448  22.664   2.439 -0.2278  0.0559  0.2788
    1W        W52584  29.260  17.202   8.835  0.2942 -0.0098 -0.0357
    1W        W52585  20.635  14.318   7.701  0.0010  0.0845  0.0161
    1W        W52586  19.566   5.962   4.152 -0.0271 -0.1675 -0.1929
    1W        W52587  27.508  15.241   1.209 -0.2327 -0.2054 -0.0151
    1W        W52588   8.043   3.558   7.416 -0.0927 -0.0197 -0.1818
    1W        W52589  24.453   7.452   8.418  0.0845 -0.2505  0.0707
    1W        W52590  20.799  28.279   8.454  0.2777 -0.1375 -0.0407
    1W        W52591  21.516  12.347   7.019 -0.0879  0.0204  0.1085
    1W        W52592  12.475  19.028   9.105  0.0792 -0.2732 -0.1549
    1W        W52593  28.782  17.306   2.362 -0.1166 -0.1298  0.1001
    1W        W52594   7.289  14.693   7.470  0.0036  0.0801 -0.3182
    1W        W52595  28.224  17.252   1.194  0.4489 -0.0107  0.2265
    1W        W52596   1.929  22.694   1.894  0.0211 -0.4112 -0.0684
    1W        W52597  17.419   5.354   1.069  0.1527 -0.1902  0.1478
    1W        W52598   8.185  15.308   1.498 -0.0914 -0.1323 -0.2482
    1W        W52599   7.386  29.097   8.220  0.0170 -0.0559 -0.0714
    1W        W52600  13.110  25.642   7.523 -0.3202  0.2337  0.1245
    1W        W52601  13.931  27.762   1.441  0.2493 -0.3805 -0.0210
    1W        W52602  15.003   2.945   0.938  0.1322 -0.1230  0.0831
    1W        W52603  28.660  18.649   2.229 -0.0468  0.5256  0.0019
    1W        W52604  12.652  26.204   7.988  0.0053 -0.0142 -0.0916
    1W        W52605  22.032  19.710   8.489  0.0178 -0.0885  0.2885
    1W        W52606  26.205   8.487   2.019 -0.0931 -0.1224  0.0446
    1W        W52607  16.963   8.637   0.836  0.0315 -0.0162 -0.0918
    1W        W52608   5.827  24.010   7.372  0.1334  0.2619  0.1457
    1W        W52609   1.305  10.149   0.265 -0.0523  0.0317 -0.0225
    1W        W52610  24.547   8.975   1.398 -0.1496  0.3421 -0.0054
    1W        W52611  27.149  19.561   7.330 -0.1079  0.0995  0.0474
    1W        W52612   0.662   6.117   1.203  0.2964 -0.2574  0.1497
    1W        W52613   6.568  19.775   0.160  0.0318 -0.0535  0.0007
    1W        W52614  19.435  11.528   1.688 -0.1974 -0.0141 -0.1049
    1W        W52615  10.373  26.665   7.981 -0.0439 -0.0932  0.0902
    1W        W52616   8.201  18.812   0.035  0.0423  0.0120 -0.0003
    1W        W52617   2.405   6.935   0.029 -0.0587 -0.0925 -0.1896
    1W        W52618  22.886  29.045   1.612 -0.1334  0.0951 -0.1351
    1W        W52619   6.261   6.717   8.849 -0.2489  0.0193 -0.1392
    1W        W52620  17.710  26.422   9.257  0.1916 -0.0120 -0.1316
    1W        W52621  12.891   1.174   8.928  0.1517 -0.1233 -0.1518
    1W        W52622   1.578  20.264   6.920 -0.2634 -0.0639 -0.1058
    1W        W52623   3.529   8.304   2.372  0.0690  0.2164 -0.1815
    1W        W52624  15.865  23.455   7.205  0.0088  0.1090 -0.2091
    1W        W52625  24.493   0.676   8.894 -0.1679 -0.0427  0.4424
    1W        W52626  22.203  15.668   2.414  0.0517 -0.1753  0.0475
    1W        W52627  11.659  16.043   8.767 -0.1465  0.1708  0.0243
    1W        W52628  20.846   5.823   2.344 -0.0675 -0.0820  0.0777
    1W        W52629  19.802  21.909   2.049  0.0161  0.0568 -0.0350
    1W        W52630  20.728  22.552   9.011  0.2163 -0.4499 -0.1249
    1W        W52631  11.368   8.835   2.063  0.2830  0.0566  0.3297
    1W        W52632  14.453  14.195   9.473  0.0933 -0.0597 -0.1709
    1W        W52633  17.152  21.075   0.276 -0.0580 -0.1452 -0.3915
    1W        W52634  19.277  10.707   9.350  0.2039 -0.0341  0.1302
    1W        W52635  23.854   6.212   0.173 -0.0995 -0.0475  0.1010
    1W        W52636  24.154   6.978   1.690 -0.3329 -0.1655  0.1469
    1W        W52637  10.427   4.861   0.199 -0.0204  0.2631  0.1446
    1W        W52638   1.838  19.903   0.616  0.1248 -0.1412 -0.2807
    1W        W52639   4.571  14.307   2.297 -0.3168  0.3407 -0.0199
    1W        W52640  12.613  19.507   7.127  0.2192 -0.1137 -0.0643
    1W        W52641  29.396  15.774   3.318  0.0733 -0.0424 -0.0220
    1W        W52642  25.895   1.002   7.446  0.0868  0.1787 -0.2342
    1W        W52643  21.421  14.470   0.425 -0.1463  0.1656  0.0449
    1W        W52644  18.314  15.094   0.721 -0.1780  0.1246 -0.3452
    1W        W52645   8.226  12.913   2.525  0.0982 -0.2855  0.0686
    1W        W52646   9.665  18.485   2.779  0.0175  0.0284  0.3132
    1W        W52647  20.269  18.760   1.029  0.3698 -0.2597  0.0125
    1W        W52648   2.052   2.521   1.393 -0.1007 -0.0721 -0.2568
    1W        W52649  18.561  15.823   1.803 -0.3084 -0.3615  0.3015
    1W        W52650  25.469   2.170   2.653  0.0011  0.2391  0.2947
    1W        W52651  20.506   0.571   0.349 -0.1401 -0.3422 -0.1953
    1W        W52652  28.220  11.879   1.520 -0.0306  0.0402 -0.2203
    1W        W52653  20.829  28.454   7.082  0.1407  0.1099  0.3416
    1W        W52654  17.035   7.098   8.915  0.2141 -0.2426  0.0723
    1W        W52655  20.114   4.121   0.435 -0.1634 -0.6558  0.0378
    1W        W52656  23.015  23.816   2.641 -0.3940  0.1173  0.2675
    1W        W52657  25.418  10.664   7.376 -0.1711 -0.1288  0.1609
    1W        W52658  15.484  17.559   6.707 -0.1859  0.0224 -0.2134
    1W        W52659   3.449   7.992   0.598  0.0001 -0.0860 -0.2337
    1W        W52660  21.123  25.941   6.178  0.1375  0.0653  0.1305
    1W        W52661  28.634   6.976   7.437 -0.1427 -0.1187 -0.0391
    1W        W52662  29.675  12.382   1.513 -0.1639 -0.0702 -0.1992
    1W        W52663   3.806  27.074   7.378 -0.0511 -0.2032  0.1410
    1W        W52664  15.171  19.629   6.368 -0.1192 -0.0555  0.2202
    1W        W52665  18.866  17.336   6.854 -0.0316 -0.1412  0.3477
    1W        W52666  28.005  16.576   8.482  0.2004  0.2607 -0.1856
    1W        W52667  23.950  16.818   8.740 -0.0091  0.0415 -0.0391
    1W        W52668  24.047  10.971   0.790 -0.1295  0.2338 -0.3155
    1W        W52669   4.361   2.353   7.211 -0.0089 -0.1576  0.1823
    1W        W52670  27.722   6.669   0.306 -0.0628  0.0027  0.0263
    1W        W52671   4.357  14.926   6.958  0.0592  0.2224 -0.0226
    1W        W52672  28.096  13.471   2.575 -0.3388  0.1526 -0.0971
    1W        W52673  12.254  24.123   7.538  0.2539 -0.0621 -0.1234
    1W        W52674   3.854   1.784   2.336  0.0126 -0.1317  0.0354
    1W        W52675  19.801  15.491   7.660  0.4495  0.1160  0.0208
    1W        W52676  24.834   6.777   8.295  0.0127  0.3132  0.0838
    1W        W52677  26.556  17.652   2.133 -0.1345 -0.3252 -0.1440
    1W        W52678   9.692  12.722   6.577 -0.2539 -0.0375  0.0234
    1W        W52679  18.408  25.762   0.418 -0.1273  0.0195  0.1751
    1W        W52680  13.228   1.193   3.968 -0.1606  0.0177 -0.0795
    1W        W52681  26.767  22.754   7.216 -0.0205  0.1442  0.2524
    1W        W52682  15.459  22.142   8.747 -0.2179  0.2060 -0.1692
    1W        W52683  27.586  15.834   8.451  0.0149 -0.0070  0.0734
    1W        W52684   5.849  28.255   0.509 -0.3132  0.0863 -0.1423
    1W        W52685   9.262   6.288   2.680  0.0661 -0.0888  0.1560
    1W        W52686   6.995  10.565   2.373  0.1429  0.3168  0.1032
    1W        W52687  13.884   4.114   2.825  0.0287  0.0798 -0.1378
    1W        W52688  12.015   0.912   1.890 -0.3384 -0.0889 -0.5851
    1W        W52689  24.337  25.077   8.142 -0.0466  0.1600 -0.1282
    1W        W52690  22.221   5.080   3.548  0.2733 -0.2495  0.0424
    1W        W52691   9.133   7.902   0.002 -0.1889  0.1194  0.0108
    1W        W52692   1.467   1.391   2.025 -0.3044  0.2105 -0.1479
    1W        W52693  25.683  13.737   0.009  0.0347 -0.0429 -0.2403
    1W        W52694  18.669   9.414   2.172  0.0016 -0.1405 -0.1897
    1W        W52695  11.464   3.986   2.012 -0.0301  0.1294 -0.0518
    1W        W52696   4.006   3.901   7.250 -0.0281  0.2123  0.0335
    1W        W52697  20.985  28.105   1.654 -0.0171  0.0648 -0.5785
    1W        W52698  23.158   7.584   0.895  0.4674  0.0460  0.1133
    1W        W52699  20.362  21.183   0.440  0.3257  0.0547 -0.1808
    1W        W52700  28.898   5.839   8.018 -0.2743  0.0749 -0.0901
    1W        W52701  22.282  20.785   1.959  0.0280  0.0629  0.1980
    1W        W52702  10.200  12.650   1.601  0.1260 -0.1536 -0.1255
    1W        W52703  25.196  11.808   1.250  0.0782 -0.0433  0.0658
    1W        W52704   8.410  17.092   7.309  0.1435  0.0461  0.1144
    1W        W52705   5.088  20.448   1.652  0.0220 -0.1282 -0.3627
    1W        W52706  28.515  21.282   2.174  0.0059  0.0391  0.0744
    1W        W52707  12.936  14.551   8.823  0.0276 -0.0030 -0.0844
    1W        W52708  14.445  17.604   7.790 -0.1607  0.1276 -0.0033
    1W        W52709   6.891  13.414   6.994 -0.1271  0.2717  0.2057
    1W        W52710   3.545  29.059   8.928  0.3283  0.2383  0.2145
    1W        W52711   2.723  10.442   7.901 -0.1842 -0.1733 -0.0668
    1W        W52712  12.604  11.232   7.609 -0.1263  0.0327  0.0080
    1W        W52713  11.721   7.326   8.287 -0.1006  0.1836  0.0111
    1W        W52714   1.838   8.582   9.182  0.0114 -0.1161  0.1473
    1W        W52715  28.736  16.265   7.632  0.3222  0.1353 -0.0300
    1W        W52716  13.909  11.257   9.447 -0.1640 -0.1156 -0.0075
    1W        W52717   0.987  20.592   8.334 -0.0797  0.1606  0.0159
    1W        W52718  13.779  28.752   7.297 -0.2243 -0.0015 -0.1435
    1W        W52719  25.452   0.737   2.278 -0.0168 -0.0392  0.2551
    1W        W52720   8.395  18.379   7.791  0.0449  0.2966  0.2453
    1W        W52721  29.192   4.758   2.691 -0.0743  0.5170 -0.3111
    1W        W52722  20.381  20.715   6.584 -0.0635  0.1341  0.0485
    1W        W52723   1.063  14.680   0.051  0.1825  0.3852 -0.0034
    1W        W52724  23.431  22.464   3.440 -0.0770 -0.0232 -0.0879
    1W        W52725  27.924  16.486   2.412 -0.1207  0.0025 -0.0926
    1W        W52726   7.498  20.974   1.112  0.3584 -0.0556 -0.1889
    1W        W52727  29.635  25.039   7.853 -0.0171 -0.0843  0.0380
    1W        W52728   5.638   0.024   8.274  0.2019 -0.2079  0.0001
    1W        W52729  14.202  13.863   1.892 -0.0351  0.0421  0.2427
    1W        W52730   0.591  13.535   2.106 -0.3001 -0.0715  0.1862
    1W        W52731  27.602  18.374   6.732  0.0862 -0.2641  0.0579
    1W        W52732  15.835  15.611   5.915  0.1872 -0.2913 -0.3611
    1W        W52733   5.970  23.119   9.393 -0.4013 -0.3222  0.1537
    1W        W52734   9.082  12.314   8.515 -0.2682 -0.0818 -0.3041
    1W        W52735  29.065  23.443   7.457  0.0097  0.1097  0.0165
    1W        W52736  22.547  23.136   0.611  0.1885  0.1287 -0.1370
    1W        W52737  26.681  16.753   6.993  0.0693  0.1097 -0.0576
    1W        W52738  11.382   1.680   3.414  0.1700  0.0836 -0.1811
    1W        W52739  23.219  23.803   9.032 -0.2722  0.1333  0.1198
    1W        W52740   8.389  25.219   7.448 -0.2640 -0.3515  0.2559
    1W        W52741  13.745  28.705   8.548 -0.1649  0.0446  0.0982
    1W        W52742   4.480   5.204   0.400  0.0627 -0.1077 -0.0224
    1W        W52743   5.236  23.727   5.465  0.1840  0.1115  0.0934
    1W        W52744  29.769  17.318   8.965 -0.0791  0.2575  0.1014
    1W        W52745  20.027  22.127   7.773  0.1877 -0.0217 -0.1630
    1W        W52746  19.827  13.235   7.865 -0.0378  0.0821  0.0033
    1W        W52747   0.744  18.663   2.136 -0.1800  0.1914  0.1669
    1W        W52748  16.317  13.352   7.876 -0.2667  0.3674 -0.1756
    1W        W52749   3.088   5.759   0.139 -0.1340 -0.1772 -0.0508
    1W        W52750  16.113  12.116   2.430  0.2828  0.0427 -0.3060
    1W        W52751  13.426  24.376   8.163 -0.0032  0.2605  0.0028
    1W        W52752  22.101  10.377   7.975  0.1448 -0.0630 -0.2715
    1W        W52753  15.226   3.432   1.858 -0.3451 -0.1054 -0.0840
    1W        W52754   2.115   3.462   2.048 -0.1970  0.2378  0.0315
    1W        W52755  20.966  15.733   9.228 -0.3411 -0.1768 -0.5367
    1W        W52756  26.285   7.640   2.022  0.0691 -0.0167  0.2003
    1W        W52757  28.809  24.244   1.636 -0.0819  0.1229 -0.2822
    1W        W52758  17.545  19.211   6.209  0.0815  0.2156 -0.1823
    1W        W52759  12.037   0.034   2.869  0.1980  0.0501 -0.0245
    1W        W52760  12.981   2.341   9.050 -0.2457 -0.0750 -0.1358
    1W        W52761   4.099  27.990   5.533  0.0073  0.1767 -0.1354
    1W        W52762  11.198  24.769   9.311  0.0376  0.0376  0.2288
    1W        W52763   7.516  15.209   9.134 -0.1937 -0.1341  0.0741
    1W        W52764  10.523  22.769   6.902  0.1187  0.2590 -0.2539
    1W        W52765  24.234   3.117   2.039  0.1829  0.0748 -0.2261
    1W        W52766  16.529   2.780   8.572 -0.1203  0.0007  0.0966
    1W        W52767  18.477   8.547   9.415 -0.0677  0.0878  0.1077
    1W        W52768  26.260   2.423   0.859 -0.2142 -0.4679  0.0575
    1W        W52769  19.612  29.528   8.921 -0.0511 -0.0386  0.1988
    1W        W52770  23.899   1.625   1.419 -0.1448  0.1500  0.0366
    1W        W52771  27.095  14.987   8.338  0.0646 -0.1622 -0.1831
    1W        W52772  15.429   3.900   2.487 -0.0304  0.0644 -0.2139
    1W        W52773  12.356  19.642   0.322 -0.0198 -0.1175  0.0604
    1W        W52774  24.364  13.993   2.401  0.0726  0.0494 -0.0098
    1W        W52775  14.248   2.564   2.416  0.1064  0.1652 -0.3093
    1W        W52776   1.916  13.740   7.860  0.0116 -0.3238  0.0074
    1W        W52777   7.253   0.195   7.869  0.0960 -0.1946  0.1654
    1W        W52778  23.566   6.897   0.400 -0.0002  0.0654 -0.0598
    1W        W52779   3.313  11.895   2.454  0.0542 -0.1546 -0.2489
    1W        W52780  19.759   6.516   2.403  0.2785  0.1986 -0.2188
    1W        W52781   3.707  25.853   0.093  0.1621  0.4810 -0.0457
    1W        W52782  17.038  17.240   7.406 -0.3956  0.0238 -0.4297
    1W        W52783  17.688  17.661   9.421 -0.1389 -0.1980  0.1489
    1W        W52784  24.159  28.275   2.768 -0.0916 -0.0251  0.1387
    1W        W52785  21.649   9.690   1.761 -0.0604  0.2844  0.0100
    1W        W52786  12.430   9.370   9.406 -0.0963 -0.0601 -0.1339
    1W        W52787  14.402  25.633   1.448 -0.3048  0.0542  0.0671
    1W        W52788   7.719  22.395   0.615 -0.2517 -0.2272 -0.1819
    1W        W52789   0.768  24.505   6.545 -0.1360 -0.2637  0.3336
    1W        W52790  17.655  17.708   8.912  0.1164  0.2153 -0.0144
    1W        W52791  18.199  13.530   1.203 -0.1972 -0.0465 -0.0661
    1W        W52792  11.802  12.894   7.125  0.1210  0.2117  0.0929
    1W        W52793   3.319  11.218   1.919 -0.3748 -0.0340  0.1954
    1W        W52794  24.806  23.669   1.956 -0.0105 -0.2921  0.1330
    1W        W52795   4.797  21.423   1.445 -0.0306 -0.1643  0.1635
    1W        W52796  26.431  29.322   2.297 -0.1323 -0.0759 -0.2732
    1W        W52797  25.279  18.137   0.196  0.1097  0.0932  0.2407
    1W        W52798  12.302  27.022   8.844 -0.1835 -0.1642  0.0026
    1W        W52799  23.321  27.673   1.112 -0.0885  0.0357 -0.1023
    1W        W52800   8.386   7.566   8.341  0.1975 -0.2398  0.1499
    1W        W52801   1.357   6.912   2.640  0.0446  0.1466 -0.1551
    1W        W52802  15.453  11.094   0.742  0.2233 -0.3073 -0.0979
    1W        W52803   1.138  15.516   1.569  0.2781 -0.1623  0.2976
    1W        W52804  27.160  16.980   1.306  0.0668 -0.1659  0.0185
    1W        W52805   3.380   9.781   7.638 -0.0090  0.0922  0.0956
    1W        W52806   9.319  20.307   0.695  0.2461  0.1040  0.0142
    1W        W52807   6.619  26.236   0.177  0.0733  0.0644 -0.2434
    1W        W52808   4.354  18.420   2.382  0.1236  0.2553  0.1772
    1W        W52809  14.671   5.629   8.928  0.1170 -0.3046 -0.3490
    1W        W52810  20.636   7.463   1.492 -0.0910 -0.0365 -0.3047
    1W        W52811  18.079   5.544   8.485  0.1986 -0.1989  0.2804
    1W        W52812  14.662   8.797   8.923  0.0539 -0.0256  0.3754
    1W        W52813  28.170   8.352   9.248  0.3502  0.2519 -0.4096
    1W        W52814  29.281  12.959   6.649  0.0135 -0.0187  0.0061
    1W        W52815   7.373  27.207   9.176 -0.0736 -0.2519 -0.0754
    1W        W52816  15.148  17.310   9.145  0.1175 -0.1065 -0.2272
    1W        W52817   6.255   1.152   0.402  0.0694  0.1354  0.4538
    1W        W52818  10.283  22.164   8.543 -0.1437 -0.1196 -0.2190
    1W        W52819  21.941  27.339   7.545  0.0974 -0.1340  0.1002
    1W        W52820  13.035   0.691   7.409 -0.2721 -0.2494 -0.1582
    1W        W52821  15.552   7.388   9.416 -0.0398  0.1699 -0.0585
    1W        W52822  27.179  28.208   8.065  0.0656  0.2155 -0.1603
    1W        W52823  28.112   7.811   7.424  0.1364  0.4937 -0.3055
    1W        W52824   8.414   6.308   9.431 -0.0680  0.1951 -0.3492
    1W        W52825  20.860  17.152   8.088  0.0391 -0.1666  0.2389
    1W        W52826  13.594  28.332   6.315 -0.0711  0.3003 -0.1017
    1W        W52827   8.642  14.951   0.043  0.0129  0.1977  0.0196
    1W        W52828  13.981  23.480   6.402 -0.2202 -0.2295 -0.1603
    1W        W52829  25.431   7.228   1.512  0.0677 -0.0505 -0.1083
    1W        W52830  19.147  16.606   0.284 -0.0066 -0.1736  0.1802
    1W        W52831  14.468  25.305   6.872  0.0428 -0.2993 -0.0374
    1W        W52832   6.565  17.211   0.534 -0.0344 -0.0296  0.1842
    1W        W52833  19.461  17.274   6.947 -0.0474  0.1978 -0.0271
    1W        W52834   8.292   9.106   8.196  0.0020 -0.1736 -0.0844
    1W        W52835  14.682  24.449   6.180  0.0433 -0.1201 -0.2928
    1W        W52836  10.229  24.198   8.082 -0.1368  0.3899  0.0817
    1W        W52837  18.364   4.328   9.224  0.0877 -0.1593  0.2613
    1W        W52838  28.218  20.766   2.206  0.2619  0.1093 -0.0993
    1W        W52839   6.221   3.947   8.186  0.2792  0.2084 -0.0993
    1W        W52840  22.114   7.629   1.614  0.1036  0.3932 -0.1603
    1W        W52841  24.815   4.849   7.284 -0.3044  0.0293 -0.0226
    1W        W52842   2.405  15.109   8.407 -0.2089 -0.1451  0.0196
    1W        W52843  26.774  21.942   0.605  0.1007  0.0510  0.1009
    1W        W52844  26.059  24.098   6.543 -0.1710  0.0043 -0.0339
    1W        W52845  22.464   2.970   1.283  0.1723 -0.0672  0.2851
    1W        W52846   5.485   2.039   0.309 -0.4483 -0.1280  0.1159
    1W        W52847  17.515  15.712   0.609  0.1681  0.1839  0.0183
    1W        W52848  16.921  29.591   0.687 -0.0413 -0.0909  0.1950
    1W        W52849   1.953   5.340   1.866  0.1822  0.1432 -0.3260
    1W        W52850  14.454  13.213   0.291 -0.0965 -0.2735  0.0112
    1W        W52851   4.879  20.992   0.877 -0.0554  0.0820  0.1168
    1W        W52852   8.812  27.568   2.241 -0.1245 -0.0937  0.0945
    1W        W52853  24.564   4.832   8.457 -0.0995  0.0607 -0.1055
    1W        W52854   5.529  29.666   9.497 -0.2397  0.3157 -0.0895
    1W        W52855   2.296  20.018   7.854  0.1752  0.0957  0.4706
    1W        W52856   6.774  15.997   0.603  0.1099  0.0520 -0.0666
    1W        W52857  27.663  21.445   0.262 -0.0212 -0.0442  0.4925
    1W        W52858  29.605  11.026   8.500  0.2391  0.2122 -0.0920
    1W        W52859  12.543   2.682   3.306 -0.2121  0.3126  0.0998
    1W        W52860   2.450  11.064   6.859 -0.0017 -0.1705 -0.0141
    1W        W52861   4.401   8.649   9.098  0.1883  0.4582  0.0723
    1W        W52862   4.272  26.397   0.669 -0.1188  0.1591 -0.1075
    1W        W52863   2.089  24.315   1.557 -0.1863  0.1771  0.2542
    1W        W52864   9.375  12.529   7.661 -0.1737  0.1086 -0.1015
    1W        W52865   1.574  10.288   9.411 -0.2432 -0.5985  0.1178
    1W        W52866   1.112  19.721   0.233  0.0824 -0.0354 -0.3530
    1W        W52867  14.806   6.156   2.664 -0.0213 -0.2261  0.2608
    1W        W52868  25.411   3.205   1.619 -0.0784  0.0649 -0.1629
    1W        W52869  22.851  26.193   8.823  0.3456  0.2948  0.3217
    1W        W52870  24.725   8.060   7.879  0.0805  0.2234 -0.0635
    1W        W52871  23.653  12.158   1.794  0.0191  0.0869 -0.1953
    1W        W52872   8.627   7.156   2.159 -0.1302  0.1799 -0.1497
    1W        W52873   3.164  19.883   2.491 -0.0392 -0.0605 -0.2182
    1W        W52874   7.687  18.264   1.803 -0.0995 -0.2528 -0.0579
    1W        W52875  11.950   3.108   2.392 -0.2569 -0.1085  0.0975
    1W        W52876  16.559  12.411   2.301  0.2499  0.0195  0.3424
    1W        W52877  14.928  22.019   1.480 -0.2675  0.0070  0.2402
    1W        W52878  16.110  24.700   2.097  0.2267 -0.1660 -0.2273
    1W        W52879   1.004  21.293   7.759  0.1979 -0.1504 -0.2358
    1W        W52880   8.814  20.390   7.523 -0.1395  0.1718 -0.2490
    1W        W52881   7.488   4.960   0.818  0.1055  0.2907 -0.2732
    1W        W52882  13.180  13.155   8.725  0.1116  0.0920  0.2463
    1W        W52883  27.448   3.843   0.493  0.4574 -0.0855  0.0958
    1W        W52884  23.139  25.701   7.718  0.4046  0.1315 -0.0059
    1W        W52885  25.755   0.853   2.896 -0.3521 -0.0367  0.1530
    1W        W52886   5.737  14.293   8.376  0.0469 -0.2127  0.1232
    1W        W52887   4.688  29.234   9.196  0.1659 -0.1031 -0.3101
    1W        W52888  13.360  28.823   8.134  0.0812  0.1490  0.1318
    1W        W52889  13.201  24.282   8.593 -0.1392  0.0651  0.1486
    1W        W52890  14.090   3.564   7.999 -0.1485 -0.0850 -0.1263
    1W        W52891   2.829  21.142   8.766  0.0115 -0.1960 -0.3964
    1W        W52892   2.006   6.876   0.854  0.0353  0.0195 -0.2307
    1W        W52893  29.291   5.983   2.578  0.2370  0.2369  0.3591
    1W        W52894  18.880  27.091   9.147 -0.1924  0.1449  0.3334
    1W        W52895  28.663   8.142   9.129 -0.1769 -0.2711 -0.1871
    1W        W52896   0.312  26.837   8.717  0.3211 -0.3670 -0.4092
    1W        W52897   3.799   5.327   7.187  0.1960  0.1787  0.3061
    1W        W52898  26.300  27.701   8.245  0.1231  0.3260 -0.0829
    1W        W52899   4.210  15.166   0.645 -0.1121 -0.1398 -0.0673
    1W        W52900   3.666   5.781   8.498 -0.0597 -0.0472 -0.2768
    1W        W52901  17.763   1.465   8.409 -0.1591 -0.2059  0.0037
    1W        W52902  11.221   0.530   0.332 -0.1093  0.1111  0.2109
    1W        W52903   4.048  26.353   0.130  0.1283  0.4670  0.0717
    1W        W52904   4.908  17.806   8.868  0.1192 -0.2930  0.1735
    1W        W52905   2.998  11.020   5.898 -0.1161  0.2367  0.2269
    1W        W52906  21.598  23.501   7.579 -0.3679 -0.1255  0.4104
    1W        W52907  22.959  10.207   8.277 -0.0848 -0.1710  0.3425
    1W        W52908  10.986  19.894   8.905  0.0003  0.0748 -0.0164
    1W        W52909  19.378  19.697   5.938 -0.0118 -0.0547 -0.3367
    1W        W52910   1.235   7.930   2.432  0.1007  0.0106  0.2897
    1W        W52911  10.619   5.283   1.887 -0.2520  0.0005  0.1112
    1W        W52912  19.816  14.884   0.602 -0.1090 -0.1406 -0.3774
    1W        W52913  14.720  21.624   7.987  0.3381  0.2044 -0.0864
    1W        W52914  12.564  28.878   8.624  0.0519  0.4513  0.2368
    1W        W52915  10.763  23.630   0.445 -0.1146  0.0673 -0.0815
    1W        W52916  26.837   6.729   0.208  0.0138 -0.1002 -0.0107
    1W        W52917   6.589   4.231   8.883  0.3585 -0.0452  0.0303
    1W        W52918   0.600   1.021   7.844  0.0429  0.2750 -0.0442
    1W        W52919  24.378   2.348   8.045  0.3189  0.1784  0.1488
    1W        W52920   9.105  18.802   2.305  0.1585  0.0896 -0.1297
    1W        W52921  12.232  12.384   1.595 -0.4243 -0.0153  0.0349
    1W        W52922  26.011  29.491   7.092  0.1108 -0.1589  0.2054
    1W        W52923  28.405   2.942   9.113 -0.1385  0.0701  0.0839
    1W        W52924   9.854   6.944   2.604 -0.1152 -0.1774  0.1536
    1W        W52925   0.390   3.754   9.187 -0.1595  0.0744 -0.0063
    1W        W52926   1.892   9.870   0.392 -0.2667 -0.1574  0.0633
    1W        W52927  22.560  22.405   8.401 -0.1007  0.4205  0.2378
    1W        W52928  13.635  29.798   1.398  0.2696  0.0978 -0.1760
    1W        W52929  23.391  28.110   6.992  0.0660 -0.1255  0.0045
    1W        W52930  11.098  18.521   1.891 -0.1151 -0.2316 -0.0972
    1W        W52931   5.348   7.816   6.773  0.2683 -0.0010  0.0321
    1W        W52932  16.935  10.071   8.938  0.1460  0.1354  0.0098
    1W        W52933   2.514  25.040   1.173 -0.1243 -0.2732 -0.3806
    1W        W52934   2.675   5.630   7.509 -0.0608 -0.1289 -0.0649
    1W        W52935  15.300  21.971   0.744 -0.2671  0.0959  0.1254
    1W        W52936  20.443  28.063   7.842  0.0640  0.1265 -0.0242
    1W        W52937  10.366  19.756   2.097  0.0037 -0.0240  0.2794
    1W        W52938   6.129   3.826   3.410  0.2503 -0.3257  0.0373
    1W        W52939  20.342   7.941   2.342 -0.0679 -0.0759  0.3580
    1W        W52940  12.772  29.370   3.650  0.0998 -0.0886  0.3765
    1W        W52941   2.849  27.881   1.419 -0.2871 -0.1145  0.2154
    1W        W52942  11.090  20.156   5.745  0.0819  0.1070 -0.1535
    1W        W52943   2.150   4.683   6.115  0.2178 -0.0199 -0.5581
    1W        W52944   8.901   7.517   3.414 -0.2888  0.2437  0.2492
    1W        W52945  18.226   0.200   7.908 -0.1218  0.4890  0.0238
    1W        W52946   5.119  12.284   2.308  0.1305 -0.1035 -0.0860
    1W        W52947   0.938  14.905   1.579  0.2299  0.2079 -0.3115
    1W        W52948   7.535  24.438   0.026 -0.2870 -0.1956  0.1598
    1W        W52949  25.112   3.292   2.031 -0.0030  0.1425  0.0122
    1W        W52950  26.000  16.810   2.421  0.3116 -0.1909  0.3099
    1W        W52951  21.424  18.848   8.648  0.2463 -0.0128 -0.3764
    1W        W52952  24.935  14.596   2.040  0.1142  0.1448  0.1803
    1W        W52953  14.609  20.999   5.678  0.0133  0.2407 -0.0033
    1W        W52954  28.567  16.190   8.265 -0.0864 -0.0520 -0.0529
    1W        W52955   1.709  15.501   0.106 -0.2095 -0.0358  0.0677
    1W        W52956   5.790  15.047   7.414 -0.0980  0.2637 -0.1933
    1W        W52957  29.619  25.408   8.649  0.0025  0.0966 -0.0826
    1W        W52958  16.182  16.807   8.517 -0.2390 -0.0129  0.0682
    1W        W52959   9.620  10.405   2.283 -0.3354  0.5320 -0.1914
    1W        W52960  14.551   0.525   2.602 -0.0688 -0.0530 -0.0568
    1W        W52961  28.447   2.328   6.735  0.1896  0.0807  0.2205
    1W        W52962   7.648   3.399   9.163  0.1849  0.0296 -0.2170
    1W        W52963  16.801  17.998   0.980 -0.1582  0.0558 -0.1351
    1W        W52964  24.313  10.400   0.312 -0.1050 -0.0286  0.0665
    1W        W52965   5.350  20.045   1.864 -0.0906 -0.1080 -0.1099
    1W        W52966   2.572   8.256   2.958 -0.0370 -0.0638 -0.0699
    1W        W52967   7.677   2.212   2.585  0.1947 -0.1736 -0.0123
    1W        W52968   1.806  14.054   8.681  0.0896 -0.0093 -0.0475
    1W        W52969  24.167  22.039   7.319 -0.1164  0.2147  0.1444
    1W        W52970  16.003   5.342   0.564  0.1002  0.1793 -0.0340
    1W        W52971   2.788  15.907   2.585 -0.2814 -0.1572  0.1559
    1W        W52972   5.448  26.584   9.483  0.2347 -0.1198 -0.0431
    1W        W52973  28.309   1.061   2.691  0.1768 -0.1018 -0.0274
    1W        W52974   8.985   4.070   2.268 -0.2013  0.0530 -0.0002
    1W        W52975  13.922  13.786   9.260 -0.1473 -0.1763 -0.0831
    1W        W52976  22.019   6.456   8.849  0.1387  0.0970  0.0267
    1W        W52977   5.369  21.445   5.935  0.1282 -0.2298 -0.3365
    1W        W52978  29.379  27.069   7.511 -0.0957 -0.3669 -0.3274
    1W        W52979  16.195  16.253   0.266  0.3030  0.2160 -0.0438
    1W        W52980   1.243  10.107   2.566 -0.1592 -0.1521 -0.0963
    1W        W52981  12.499   4.220   8.727  0.3192 -0.1176  0.1682
    1W        W52982   0.334  27.247   7.976  0.0848 -0.1205  0.2815
    1W        W52983   3.988  28.359   6.706  0.2968 -0.2162  0.0621
    1W        W52984   6.963   8.194   0.978 -0.0443  0.1255  0.2498
    1W        W52985  18.085  26.985   2.425 -0.0168 -0.3808  0.0574
    1W        W52986   0.671   1.016   6.045 -0.1530 -0.1949 -0.1743
    1W        W52987   7.733  14.886   7.618 -0.0866  0.4085 -0.1835
    1W        W52988  23.852   3.312   8.095 -0.1423  0.0442  0.1001
    1W        W52989   8.095  28.161   0.606  0.1829  0.2123 -0.1344
    1W        W52990  19.429  23.883   9.080  0.3325 -0.2771 -0.3242
    1W        W52991   9.290   1.498   0.129 -0.0108  0.1419  0.1444
    1W        W52992  16.638   1.706   3.424  0.1711 -0.0448 -0.1535
    1W        W52993  15.278  10.908   7.723  0.0300  0.0626 -0.2035
    1W        W52994  10.918   0.823   8.300  0.1489 -0.1505  0.0162
    1W        W52995  13.646   0.772   0.325  0.0197 -0.1849 -0.0535
    1W        W52996   9.755  18.835   0.288 -0.1025  0.0288 -0.1053
    1W        W52997  18.904  28.465   1.164 -0.0679 -0.1084  0.0319
    1W        W52998   2.420  23.415   7.555 -0.2328  0.1375  0.1477
    1W        W52999  28.855  29.417   8.534 -0.4094  0.0886 -0.1298
    1W        W53000  12.099  16.117   6.872 -0.0803 -0.0021  0.0442
    1W        W53001  26.675  14.828   1.534  0.2235  0.2473 -0.3939
    1W        W53002  14.194  14.836   6.777 -0.0904  0.3713 -0.1995
    1W        W53003  18.953  23.789   0.505 -0.0861  0.2807 -0.1749
    1W        W53004  29.577  21.442   6.689  0.0867 -0.0447 -0.1081
    1W        W53005  18.232  25.190   6.333  0.2757 -0.2930 -0.0701
    1W        W53006  13.889  16.942   8.486 -0.7115  0.1396 -0.1963
    1W        W53007  27.138  21.707   8.224  0.2213  0.1714 -0.1293
    1W        W53008   8.021  10.584   8.675 -0.3560  0.1352  0.3350
    1W        W53009  13.612  25.685   0.580 -0.1376 -0.0595 -0.2600
    1W        W53010  27.202   4.382   7.572 -0.5467  0.0133  0.0026
    1W        W53011  19.610   5.506   0.720 -0.2141  0.1362 -0.1280
    1W        W53012   1.801  12.563   8.426 -0.0318  0.3828  0.0806
    1W        W53013   0.386   4.863   8.743 -0.0720 -0.2810 -0.4239
    1W        W53014  15.682   8.444   8.433 -0.1258 -0.2167  0.2686
    1W        W53015  15.965   0.800   9.118 -0.0101 -0.4473 -0.3283
    1W        W53016  24.730  12.817   7.372  0.1819 -0.1907 -0.0401
    1W        W53017  24.757  24.621   7.492  0.0012 -0.1016 -0.0099
    1W        W53018  20.068  21.007   8.049 -0.1797 -0.1293  0.1232
    1W        W53019  12.959  18.237   7.061 -0.1255 -0.2185 -0.0291
    1W        W53020  24.570  12.250   1.725  0.2072 -0.1914  0.0336
    1W        W53021  24.120  12.898   7.172  0.0164  0.3028  0.0906
    1W        W53022  10.997   2.257   2.767  0.3025  0.0221 -0.5941
    1W        W53023  11.490  14.111   1.689  0.2656  0.0942 -0.4117
    1W        W53024   3.235   1.497   6.509  0.0209  0.1539  0.2508
    1W        W53025  10.578  20.975   0.292  0.0213 -0.2657  0.1734
    1W        W53026  17.632  18.807   2.323 -0.1695 -0.0433  0.1134
    1W        W53027  16.461   7.789   0.319 -0.3747  0.0464  0.2200
    1W        W53028   7.669   9.548   1.651 -0.0943  0.1359 -0.1471
    1W        W53029  22.485  23.895   7.352 -0.1012 -0.0285  0.0897
    1W        W53030  15.137  11.972   0.695 -0.0825  0.0197 -0.1149
    1W        W53031  24.584  23.309   1.616  0.2685  0.0317  0.1806
    1W        W53032  26.150  15.501   0.578  0.2277 -0.1335 -0.1092
    1W        W53033  24.887   7.183   8.577 -0.1309  0.3814 -0.4394
    1W        W53034  14.220   4.165   3.200  0.1691 -0.0540 -0.0952
    1W        W53035   0.012   9.776   8.645 -0.1776 -0.1256 -0.1815
    1W        W53036  28.269  15.632   0.762 -0.0733 -0.1746  0.1251
    1W        W53037  10.423  26.403   1.340 -0.2661  0.0253  0.2274
    1W        W53038   6.358  24.964   8.193 -0.1222 -0.2435 -0.0909
    1W        W53039   9.860  11.726   8.317  0.0471  0.0728 -0.2345
    1W        W53040  19.886   5.056   9.420  0.0261 -0.0967  0.1147
    1W        W53041  28.064  21.357   8.183 -0.0755  0.0392  0.1996
    1W        W53042  11.201  23.049   8.147 -0.1465 -0.0555 -0.0474
    1W        W53043  15.788  10.203   0.475 -0.0651  0.2623  0.0125
    1W        W53044  15.059  24.976   9.432 -0.0744 -0.0609  0.0393
    1W        W53045  14.042  20.179   8.988  0.2125 -0.0663  0.0083
    1W        W53046  10.499   4.904   1.505  0.1838 -0.0388 -0.0243
    1W        W53047   7.053  19.425   0.001 -0.0108  0.1692 -0.0707
    1W        W53048   8.725  26.040   0.456 -0.2122  0.2811  0.0439
    1W        W53049   2.219  13.018   2.348 -0.0489 -0.1000  0.1824
    1W        W53050   1.919   1.307   7.614  0.1562 -0.0319 -0.1483
    1W        W53051  20.033   3.032   3.769  0.0321 -0.1339 -0.1488
    1W        W53052  25.089  22.239   2.453  0.0813  0.0207 -0.2784
    1W        W53053  15.915  18.743   0.502 -0.2738  0.2607 -0.4239
    1W        W53054  12.667   8.355   8.904 -0.0215 -0.0931  0.2973
    1W        W53055  25.700   8.391   8.740  0.2119  0.1305  0.3632
    1W        W53056   1.658  25.912   8.191 -0.0978 -0.1002 -0.1966
    1W        W53057  28.860   9.715   6.501 -0.1195  0.2299 -0.1653
    1W        W53058   1.542  14.916   0.805 -0.2484  0.1202  0.0619
    1W        W53059  16.716  14.685   1.355 -0.2212  0.1133 -0.1640
    1W        W53060   5.910  22.884   2.053  0.0598 -0.1653 -0.0327
    1W        W53061  19.900  23.887   5.480  0.0654  0.2939 -0.1734
    1W        W53062  12.794  28.080   6.919  0.1372  0.0498 -0.0234
    1W        W53063  12.739  16.636   1.629  0.2894 -0.0380  0.0653
    1W        W53064  22.414  24.523   8.930  0.4496 -0.3207  0.2897
    1W        W53065  11.158  19.060   1.891  0.0147  0.0974 -0.3216
    1W        W53066  17.419  10.602   8.396  0.2525 -0.2564 -0.1107
    1W        W53067  26.347  21.971   6.758  0.0209  0.2362 -0.0285
    1W        W53068  19.071  28.078   9.332  0.1820 -0.2906  0.0666
    1W        W53069   4.421  19.662   0.280 -0.0864 -0.0108  0.0461
    1W        W53070  24.559  28.063   2.450 -0.2424 -0.0519  0.1219
    1W        W53071  29.177   7.408   7.288  0.3457  0.1797  0.0924
    1W        W53072  24.496   6.398   7.408  0.3623  0.2373  0.1652
    1W        W53073  20.039   5.263   3.184  0.0586 -0.1212 -0.3772
    1W        W53074   8.302  12.662   8.208 -0.3713 -0.2880  0.0564
    1W        W53075  29.088   7.887   7.267  0.0736  0.1626 -0.1836
    1W        W53076  17.722   3.424   1.224  0.3136  0.1820  0.0227
    1W        W53077   3.887  11.968   0.292  0.2191 -0.0121  0.0189
    1W        W53078  13.166  18.592   1.132 -0.3197 -0.3992  0.2953
    1W        W53079  23.186   8.255   2.626  0.0067  0.1256  0.0231
    1W        W53080   4.539  24.760   6.125  0.2989  0.2808  0.3916
    1W        W53081  10.517   6.866   7.991 -0.4769 -0.0914  0.0344
    1W        W53082  29.035   4.056   0.929 -0.0693 -0.1672 -0.1499
    1W        W53083   2.949   8.457   0.207 -0.2054 -0.0834  0.2029
    1W        W53084  20.731  25.854   7.081  0.2188  0.2206  0.1071
    1W        W53085   5.150  17.709   6.404 -0.0427  0.0252  0.3917
    1W        W53086  12.704   7.906   8.671 -0.2403  0.1290  0.0210
    1W        W53087   1.695  24.432   8.192 -0.1483 -0.0608 -0.0556
    1W        W53088  28.703   4.388   6.145 -0.1070 -0.0999 -0.1663
    1W        W53089  27.149   6.235   7.675 -0.3379  0.0092  0.0508
    1W        W53090  12.783  15.843   8.132 -0.0138  0.0202  0.0865
    1W        W53091  19.189  11.915   2.120  0.0777 -0.1505 -0.2580
    1W        W53092   0.781  11.332   6.972  0.0134 -0.0542  0.1593
    1W        W53093  23.032   9.211   2.275  0.0142 -0.1246 -0.0759
    1W        W53094   9.628  18.185   6.705 -0.1072  0.0100  0.1549
    1W        W53095  14.709  10.539   0.717  0.1370 -0.1312  0.0298
    1W        W53096  24.145  20.671   7.414  0.0395 -0.0395  0.0088
    1W        W53097  21.837   7.108   8.436  0.2393 -0.3138  0.3801
    1W        W53098   0.684  12.173   9.296 -0.0637 -0.2318 -0.2517
    1W        W53099   1.068   4.470   1.259  0.3179 -0.2198 -0.1597
    1W        W53100  28.998  27.412   7.349  0.1527 -0.2875 -0.1270
    1W        W53101  14.631  11.706   7.770 -0.1845  0.0837  0.5253
    1W        W53102  12.394  26.180   0.022 -0.3171 -0.2060 -0.0522
    1W        W53103   1.626  14.887   9.453 -0.0173 -0.1989  0.0482
    1W        W53104   5.760  27.258   7.544  0.0452 -0.1960 -0.1290
    1W        W53105   9.542   8.988   8.699 -0.4039  0.2986 -0.0412
    1W        W53106  16.357  16.192   1.173 -0.0538  0.2473 -0.2729
    1W        W53107  17.955  12.719   7.990 -0.1527 -0.0687 -0.0383
    1W        W53108   3.073   2.133   7.700  0.1392 -0.2156  0.0204
    1W        W53109  29.471  16.079   7.351  0.1380 -0.0606 -0.1009
    1W        W53110  16.398  26.751   3.029 -0.0411  0.1978  0.0520
    1W        W53111  28.310   8.608   1.003 -0.2282  0.0767  0.2142
    1W        W53112  27.534  26.762   1.349 -0.1845 -0.0676  0.0688
    1W        W53113  21.862  22.717   1.364 -0.0432  0.1174 -0.0725
    1W        W53114  24.074   0.010   8.388  0.2659  0.0775  0.0895
    1W        W53115  25.978   1.332   2.810 -0.0963  0.0962  0.2482
    1W        W53116  28.884  20.926   0.900 -0.0094 -0.2417  0.0757
    1W        W53117   3.992  16.398   8.119 -0.2676  0.0615 -0.1747
    1W        W53118  19.670  16.263   1.836  0.3131 -0.1027  0.1849
    1W        W53119  25.046  24.542   2.649  0.1256  0.1200 -0.2783
    1W        W53120   5.858   3.710   1.523 -0.1532  0.0733  0.1532
    1W        W53121  27.616   6.926   1.392  0.1896  0.1947 -0.0633
    1W        W53122   2.648  19.010   7.514 -0.0640  0.1323 -0.1004
    1W        W53123  11.382  26.487   2.462 -0.1799 -0.1465 -0.1219
    1W        W53124  14.158  25.034   5.782  0.0929  0.1494 -0.0179
    1W        W53125  16.677  10.391   0.755  0.1730  0.2271 -0.0560
    1W        W53126   8.822  20.385   9.144 -0.0766  0.0916  0.2000
    1W        W53127  23.844  15.006   2.543  0.1139 -0.1140 -0.1524
    1W        W53128   1.569  15.102   8.469 -0.0347 -0.1436 -0.1380
    1W        W53129  29.692  28.776   0.247  0.1730  0.1133 -0.4201
    1W        W53130   1.830  16.450   7.273  0.4467  0.0060  0.0546
    1W        W53131   4.715  25.893   7.902  0.1389  0.1572 -0.1639
    1W        W53132   2.739  28.756   6.579  0.0753 -0.1757 -0.0490
    1W        W53133  27.257   8.026   1.296  0.0433  0.1201 -0.3733
    1W        W53134  21.037   2.021   0.518 -0.0113  0.1331  0.1000
    1W        W53135  29.206  22.151   0.284  0.0597  0.0674 -0.0828
    1W        W53136  11.077   7.529   2.521 -0.0281  0.0982 -0.0004
    1W        W53137  13.335  16.457   0.279 -0.1691  0.1404 -0.2469
    1W        W53138   9.101  11.536   7.743 -0.0233  0.0571  0.0676
    1W        W53139   9.389   1.586   8.220 -0.0525  0.0205 -0.1504
    1W        W53140  23.229   7.763   2.876 -0.2648  0.0314  0.4344
    1W        W53141  16.534  28.338   8.618 -0.0432 -0.1639 -0.0122
    1W        W53142  17.529   3.879   0.628  0.0060 -0.0015  0.0243
    1W        W53143  21.238  29.211   0.747  0.1027  0.0296  0.3061
    1W        W53144  24.713  25.632   1.673 -0.2793  0.0147 -0.1638
    1W        W53145  29.289  13.761   7.248 -0.0002 -0.0751  0.1774
    1W        W53146  18.353   2.391   1.849  0.0421 -0.0683  0.4207
    1W        W53147  19.400   8.635   2.736  0.0550  0.3884 -0.3994
    1W        W53148   4.841  14.951   6.655 -0.2543  0.1546  0.0437
    1W        W53149  10.660   2.056   1.468  0.0167  0.3766 -0.2923
    1W        W53150   1.683  27.602   5.516 -0.1528 -0.0287 -0.0056
    1W        W53151  11.183   3.094   1.076 -0.1365  0.0368  0.2859
    1W        W53152  11.055   9.336   2.013  0.2682 -0.3912 -0.1378
    1W        W53153  25.668  11.763   2.143 -0.0267  0.0634 -0.0297
    1W        W53154  11.178   6.885   2.318  0.0762 -0.0579  0.0905
    1W        W53155   2.254  20.881   8.408 -0.0643 -0.0248  0.0411
    1W        W53156  26.669  16.130   7.518 -0.3916  0.0882  0.0513
    1W        W53157   5.987  28.111   0.011  0.0067 -0.1528  0.0662
    1W        W53158  14.914  21.830   7.179  0.0555 -0.3101  0.1661
    1W        W53159  13.604  12.358   7.989 -0.0653 -0.0840 -0.0239
    1W        W53160  18.723   5.113   0.756 -0.1788 -0.2313  0.2458
    1W        W53161  22.478  20.428   0.457  0.1721 -0.0657  0.0553
    1W        W53162  19.057   4.927   3.514 -0.0190  0.1171  0.0352
    1W        W53163  28.093  11.515   1.836 -0.1097 -0.0223  0.0504
    1W        W53164  12.600  29.388   1.270 -0.1803 -0.1445 -0.0958
    1W        W53165  28.955  18.674   9.241  0.0294  0.2235 -0.0452
    1W        W53166  12.117   3.486   1.624  0.0120  0.1513 -0.0048
    1W        W53167  14.174  26.830   2.175 -0.1353  0.0963  0.0529
    1W        W53168  13.095   6.290   0.296  0.1367 -0.0152 -0.1113
    1W        W53169   7.690   6.429   0.565 -0.0192 -0.4134 -0.1831
    1W        W53170  11.712  11.190   7.253  0.2707 -0.0687  0.1264
    1W        W53171   0.437  14.744   6.300  0.1183 -0.2465 -0.1351
    1W        W53172  29.371  19.926   8.552 -0.1753  0.2011  0.1391
    1W        W53173  28.718  23.265   1.042  0.1617  0.3037  0.0710
    1W        W53174  23.198   8.953   6.962  0.1341  0.2089  0.0997
    1W        W53175   9.830  17.375   1.060 -0.1006 -0.2895 -0.2326
    1W        W53176  11.783  13.997   0.004 -0.1913 -0.0803  0.1722
    1W        W53177  18.849  16.777   7.145 -0.2795  0.0961  0.1070
    1W        W53178   8.637  12.551   2.088 -0.1250 -0.1744 -0.0078
    1W        W53179  21.790  21.165   0.677 -0.1230  0.1432  0.0214
    1W        W53180  10.295  22.302   0.044  0.1914 -0.0086 -0.0567
    1W        W53181   8.960  15.391   9.406 -0.0171 -0.2797  0.0907
    1W        W53182   4.907  14.469   9.243  0.2016 -0.1699 -0.0483
    1W        W53183  27.727  29.426   7.103 -0.2320 -0.3466 -0.0546
    1W        W53184   9.774  20.043   1.444  0.0401  0.2679 -0.0321
    1W        W53185  26.031   8.247   1.444  0.1224 -0.1503 -0.0249
    1W        W53186   7.167   2.786   0.173  0.0735 -0.0400 -0.4140
    1W        W53187  14.974  12.843   6.606  0.0118  0.1232  0.0017
    1W        W53188  27.021  28.230   2.359 -0.2263 -0.2397  0.1664
    1W        W53189   2.420  17.407   9.190  0.1378  0.1395 -0.1618
    1W        W53190  21.656  20.913   0.172 -0.1555 -0.0269  0.0947
    1W        W53191   1.138  14.120   7.473 -0.2756  0.0811 -0.1127
    1W        W53192   4.393  27.320   8.108 -0.0256 -0.0987  0.3009
    1W        W53193  23.039  14.278   0.288  0.2610 -0.4598 -0.2105
    1W        W53194  21.725  12.506   7.534 -0.1586 -0.2237  0.2037
    1W        W53195  24.176  25.617   0.345  0.0517 -0.0017  0.0953
    1W        W53196  14.962  29.446   7.574 -0.0356  0.0596 -0.1244
    1W        W53197  20.500  24.992   6.745  0.1333  0.0500  0.1716
    1W        W53198   6.466  17.545   1.828 -0.0368 -0.0380  0.0446
    1W        W53199  27.523   2.641   2.229 -0.0294 -0.1578 -0.2451
    1W        W53200  20.765  11.095   1.666 -0.2189  0.1014  0.0403
    1W        W53201   1.128   6.654   6.775  0.0221 -0.3233  0.0056
    1W        W53202   9.681  20.590   5.931  0.0096 -0.0122 -0.0585
    1W        W53203   5.298  23.836   6.600 -0.1415 -0.0823 -0.2497
    1W        W53204  14.972  13.654   1.694 -0.1172  0.0800 -0.1498
    1W        W53205  15.533  27.508   7.967 -0.6400 -0.0089  0.0566
    1W        W53206   6.091   6.257   1.983 -0.1323 -0.2588 -0.2572
    1W        W53207  10.797  28.264   7.852  0.0293 -0.1074 -0.1244
    1W        W53208  29.573   2.953   7.275  0.2026 -0.0252  0.0919
    1W        W53209  25.985  12.115   1.879  0.2073  0.1295 -0.2282
    1W        W53210  16.442   5.174   2.949 -0.1069 -0.0492  0.1297
    1W        W53211   7.577  21.064   7.283 -0.1580  0.0337  0.0754
    1W        W53212   0.024  28.371   2.297  0.2243 -0.1430  0.3384
    1W        W53213  22.316   4.527   3.262 -0.1654  0.2206 -0.0170
    1W        W53214   7.803   9.794   7.696 -0.0446 -0.0632  0.1898
    1W        W53215  16.268  18.384   0.344  0.1357 -0.2106 -0.0907
    1W        W53216   8.482  12.773   8.948 -0.1151  0.2471  0.2396
    1W        W53217   5.969  11.341   1.020  0.1580  0.2104  0.1421
    1W        W53218  25.888  21.457   8.206 -0.0474  0.0964 -0.0213
    1W        W53219   5.924   9.913   6.927 -0.0269 -0.0896 -0.0204
    1W        W53220  15.495   1.398   3.082 -0.1513 -0.2257 -0.0355
    1W        W53221  15.027  26.637   5.772  0.4206  0.0288 -0.0338
    1W        W53222  12.749  19.351   1.141 -0.1113 -0.1929  0.2975
    1W        W53223   3.013  28.123   8.019 -0.2552 -0.2080  0.0758
    1W        W53224   2.668  25.636   8.814  0.0205 -0.3079  0.0866
    1W        W53225  17.077  26.329   1.658  0.1277 -0.1059  0.0945
    1W        W53226  10.535   3.668   1.701 -0.1650 -0.1930 -0.0037
    1W        W53227  22.110  26.924   8.767 -0.1470  0.2152 -0.1574
    1W        W53228  15.429   7.850   1.331 -0.3128 -0.1067  0.0071
    1W        W53229  23.606  16.722   6.817 -0.0202 -0.1202  0.1497
    1W        W53230   2.862   6.640   7.531  0.1014 -0.5706  0.0598
    1W        W53231   8.101  11.635   0.619  0.1954 -0.1698 -0.1855
    1W        W53232  19.829  29.187   0.987  0.0256 -0.0052 -0.1231
    1W        W53233  24.679  11.142   0.292 -0.2623  0.0652  0.0621
    1W        W53234   6.567   5.216   8.974 -0.5719 -0.2315 -0.2093
    1W        W53235  17.693  18.149   0.683  0.1759  0.0276  0.0085
    1W        W53236   7.195  22.267   6.157  0.0333  0.0980  0.0586
    1W        W53237   6.200   2.094   8.148  0.0321 -0.2068  0.2281
    1W        W53238  29.301  14.254   2.021 -0.1737  0.0181  0.4952
    1W        W53239   7.086  28.015   7.121 -0.3095  0.2048 -0.1171
    1W        W53240  14.865  22.042   6.049 -0.0518 -0.0317 -0.2558
    1W        W53241  26.578  18.077   7.406 -0.2761  0.1095  0.0779
    1W        W53242  10.223  16.164   6.570 -0.0092  0.0049 -0.1583
    1W        W53243  29.153  12.939   2.234 -0.0226  0.1449  0.3230
    1W        W53244   5.796  18.246   1.525 -0.0488 -0.0916  0.1090
    1W        W53245  25.748  24.339   7.562  0.2043  0.0751 -0.1431
    1W        W53246  13.952  29.160   3.427  0.0528  0.0458  0.1238
    1W        W53247   6.121  10.277   2.358  0.0981  0.0674 -0.1574
    1W        W53248  28.763  19.523   0.971  0.0843  0.0666 -0.2755
    1W        W53249  26.317   6.797   8.063  0.0629 -0.1075 -0.1226
    1W        W53250   2.580  18.174   1.848  0.1250 -0.0312 -0.1076
    1W        W53251   1.055   3.377   2.760  0.0552 -0.0610  0.1625
    1W        W53252   7.750  21.762   7.926  0.2154  0.0084  0.2929
    1W        W53253   6.103   8.432   7.497 -0.0271 -0.5467 -0.0574
    1W        W53254  10.480  29.604   3.475  0.0128 -0.3345 -0.0382
    1W        W53255   8.063  21.345   8.254  0.1917 -0.1464 -0.1663
    1W        W53256  21.196   7.410   2.874 -0.2633  0.4583 -0.1601
    1W        W53257   3.362   9.339   7.382 -0.0786  0.1333  0.0325
    1W        W53258  18.984  14.084   8.730  0.1665  0.1689  0.1259
    1W        W53259  28.238  18.416   0.292  0.2396  0.0749  0.0202
    1W        W53260   6.439   8.764   2.858  0.3842  0.1263  0.0377
    1W        W53261   7.553  16.763   1.024 -0.0016  0.3649 -0.2795
    1W        W53262   0.183   8.897   2.272  0.3485 -0.0679 -0.1013
    1W        W53263  21.111   0.124   7.847 -0.3824 -0.1137 -0.0445
    1W        W53264  13.401   7.508   9.031  0.3312  0.1789 -0.0811
    1W        W53265  14.717   6.687   1.221  0.0819 -0.1159  0.2509
    1W        W53266  13.340  28.288   0.818 -0.0411  0.1403  0.0761
    1W        W53267  25.223  25.348   0.991  0.1384  0.0160  0.0392
    1W        W53268  26.929   1.082   8.688 -0.2267 -0.3447 -0.0984
    1W        W53269   3.043  16.701   8.191 -0.4834 -0.3013  0.0924
    1W        W53270  22.812   9.361   8.204 -0.1765  0.3664 -0.1606
    1W        W53271  12.833  14.549   0.488 -0.0125 -0.3651  0.3644
    1W        W53272  17.668  25.152   6.310 -0.0882 -0.0689  0.2747
    1W        W53273  16.124   6.135   1.393  0.1047 -0.2464  0.2204
    1W        W53274   5.646   8.260   6.855  0.0964  0.2554  0.0483
    1W        W53275  22.328   4.054   2.356 -0.3361  0.1666  0.0734
    1W        W53276  16.061  22.698   7.332 -0.1094 -0.4551 -0.0766
    1W        W53277  19.301   1.767   8.131 -0.0229  0.1131  0.0260
    1W        W53278  24.381  23.657   2.324  0.0083 -0.1144  0.1919
    1W        W53279  29.819  19.876   8.844 -0.0331 -0.0769 -0.0016
    1W        W53280  22.613  10.607   2.276  0.0716  0.0337  0.2336
    1W        W53281   7.771  20.608   7.625 -0.1604 -0.3283  0.1855
    1W        W53282   9.937  28.836   0.377  0.1546  0.0891 -0.1811
    1W        W53283  26.558  21.490   7.484 -0.0196  0.0533  0.0205
    1W        W53284   5.732  21.296   6.995 -0.2150 -0.2227 -0.2059
    1W        W53285   6.213  18.528   6.787  0.1837  0.0241  0.0494
    1W        W53286  21.577  25.730   9.311 -0.4750 -0.1178 -0.0392
    1W        W53287   9.439  22.738   0.558  0.2805 -0.1457 -0.1480
    1W        W53288  27.338   8.733   8.971  0.1089  0.0177 -0.3402
    1W        W53289   4.181   2.708   2.519 -0.1582  0.0805  0.1635
    1W        W53290  20.930  29.226   9.137  0.0491  0.0400  0.3347
    1W        W53291   4.568  25.138   7.911  0.1882 -0.1351  0.2131
    1W        W53292   7.512  21.971   7.517 -0.0224 -0.0849  0.2891
    1W        W53293   5.303   6.155   0.454 -0.0707 -0.1186  0.0471
    1W        W53294  21.225   8.690   8.356 -0.2085  0.0649 -0.1273
    1W        W53295  22.468  28.808   2.970 -0.1224  0.1924  0.2845
    1W        W53296  16.672  17.800   8.460  0.1936 -0.1201  0.3091
    1W        W53297   2.770  12.018   7.473  0.1581  0.1987 -0.1632
    1W        W53298  25.601  18.128   9.270 -0.0509  0.0789  0.1927
    1W        W53299  12.451  21.000   9.525 -0.0536 -0.2089  0.0158
    1W        W53300  29.599  15.090   9.348  0.1804  0.1246 -0.2021
    1W        W53301   9.044  24.626   0.049  0.0890 -0.1261 -0.0964
    1W        W53302  19.943  26.080   8.899  0.1796 -0.2495 -0.0377
    1W        W53303   7.667   4.454   7.496  0.0187 -0.1123 -0.3118
    1W        W53304   1.297  12.934   3.086  0.1368  0.1283  0.2177
    1W        W53305  21.781  27.247   8.010  0.5287 -0.1427  0.0360
    1W        W53306  20.050  24.602   1.477  0.2389 -0.1867 -0.1975
    1W        W53307   4.625  23.278   9.494 -0.0966 -0.0923 -0.5767
    1W        W53308   6.309  11.823   6.832 -0.0024 -0.0403  0.0591
    1W        W53309   4.882   4.910   0.586  0.1360 -0.1337 -0.2796
    1W        W53310   2.157  28.214   8.792 -0.0898 -0.0019 -0.1623
    1W        W53311   7.781   4.007   8.472  0.1080 -0.0725  0.3814
    1W        W53312  28.270  19.025   7.053  0.0984 -0.1520  0.3377
    1W        W53313   4.146   9.162   9.465 -0.3700  0.2095 -0.1535
    1W        W53314   5.850   5.383   1.010 -0.3974 -0.3584 -0.0530
    1W        W53315   1.702  25.802   1.022 -0.0165 -0.2209 -0.1575
    1W        W53316  20.658   1.140   3.328  0.2842  0.1626  0.1211
    1W        W53317  19.256  15.540   1.137 -0.3391  0.1066 -0.1733
    1W        W53318  26.507   1.076   2.220  0.2365 -0.2249 -0.0065
    1W        W53319  22.708   0.849   2.519  0.2001  0.1887  0.0739
    1W        W53320  13.644   2.977   4.303 -0.1488  0.2698  0.0507
    1W        W53321  24.607  23.571   2.796  0.0034 -0.1936 -0.2967
    1W        W53322   8.360   9.589   8.827  0.2118 -0.0229  0.5065
    1W        W53323  18.403  10.259   1.330  0.1041  0.1072  0.1639
    1W        W53324   1.703   2.790   2.817 -0.1661 -0.1903  0.2227
    1W        W53325  20.973   4.132   3.525 -0.0782  0.2017 -0.0683
    1W        W53326   7.126  20.654   8.035 -0.1610 -0.2806  0.0103
    1W        W53327   0.902  16.726   6.722 -0.1106  0.0290 -0.0443
    1W        W53328  29.648   6.790   0.403  0.1228 -0.0488 -0.2227
    1W        W53329   8.083  15.915   7.369 -0.1427  0.5202  0.0013
    1W        W53330   3.084   1.677   7.523  0.1870 -0.0322 -0.0243
    1W        W53331   0.774  14.230   8.345  0.1251 -0.1795  0.0934
    1W        W53332  13.788   6.592   1.653  0.2467 -0.2082  0.0728
    1W        W53333  26.433  21.786   1.937 -0.0274 -0.0690 -0.3783
    1W        W53334  17.696   7.100   9.073 -0.2449 -0.4224  0.1361
    1W        W53335  11.304  24.849   8.348 -0.0807  0.0635 -0.0017
    1W        W53336  19.543   8.623   8.955  0.1343 -0.3159 -0.2673
    1W        W53337  18.180   2.363   2.318 -0.0184 -0.0097  0.0580
    1W        W53338   3.090  17.065   2.480  0.1588 -0.1105  0.1283
    1W        W53339   1.116  26.098   6.485  0.1412 -0.1093  0.0276
    1W        W53340  22.448  13.326   7.862 -0.2755 -0.1133  0.3880
    1W        W53341   6.345   6.905   2.527  0.0302 -0.1392 -0.3315
    1W        W53342  17.862  17.813   7.098  0.1649 -0.1309 -0.1560
    1W        W53343   3.805  17.039   8.540  0.1971  0.4841  0.1645
    1W        W53344   0.863  14.793   6.687 -0.2203  0.1220  0.3176
    1W        W53345   2.477  10.542   1.651 -0.4164 -0.2967  0.2023
    1W        W53346   9.170  15.318   8.835 -0.0499 -0.0056 -0.2626
    1W        W53347   9.635  25.735   1.456  0.1602  0.1905  0.1756
    1W        W53348   2.665   5.774   8.494 -0.5335 -0.2318 -0.1015
    1W        W53349  10.067   4.363   2.582 -0.1050  0.2544  0.0531
    1W        W53350  21.780   9.832   7.337  0.3165 -0.1446 -0.1757
    1W        W53351  20.125  24.295   8.452  0.1439  0.0258 -0.1858
    1W        W53352  23.538  15.412   7.683 -0.2077  0.3861  0.1143
    1W        W53353  21.251  18.444   6.009 -0.0547  0.0868 -0.2056
    1W        W53354   1.200  23.617   7.658  0.1781  0.1835 -0.3283
    1W        W53355  16.254  28.589   2.084 -0.2173  0.0264  0.0835
    1W        W53356   0.966  11.266   8.248 -0.1701  0.1972  0.1718
    1W        W53357   8.374   8.325   0.462 -0.0816 -0.3559  0.0558
    1W        W53358  22.689   4.184   3.225 -0.2357  0.1689  0.0459
    1W        W53359   8.911  25.364   0.071  0.2647 -0.2618 -0.0020
    1W        W53360   0.720  21.209   1.053 -0.0362 -0.1134 -0.2883
    1W        W53361  25.381  12.109   0.715  0.1519  0.2319  0.0613
    1W        W53362  13.567   5.165   2.695  0.1307 -0.0652  0.2949
    1W        W53363  13.718  16.644   1.785  0.3038  0.1974 -0.1083
    1W        W53364   2.838  21.662   0.222 -0.1609 -0.2897 -0.1649
    1W        W53365  19.297   1.219   2.296 -0.1261 -0.0011 -0.2444
    1W        W53366  23.919  18.424   9.160  0.2735 -0.1084  0.1676
    1W        W53367   9.944  29.852   0.321 -0.0084  0.2310 -0.0089
    1W        W53368  26.560  28.103   8.544 -0.1033  0.4425  0.1884
    1W        W53369  26.136  21.221   9.226 -0.2234  0.0745  0.0805
    1W        W53370  10.104   5.247   8.486 -0.2190 -0.0804 -0.0783
    1W        W53371  22.518  17.596   1.078 -0.3140  0.0523 -0.0292
    1W        W53372  12.126  13.189   0.262 -0.0206  0.0947  0.0460
    1W        W53373  25.956  13.986   1.494 -0.0791  0.0218  0.2529
    1W        W53374  23.699  27.536   1.507 -0.2939 -0.0883 -0.1623
    1W        W53375  13.797   0.134   8.726  0.3921  0.1055  0.0381
    1W        W53376   1.598  12.143   1.652  0.1996  0.1702 -0.0684
    1W        W53377   6.317   5.907   7.743 -0.1622  0.1371 -0.2633
    1W        W53378  24.094  14.178   1.621 -0.0432 -0.4809  0.4311
    1W        W53379  17.838  10.220   7.440  0.0260  0.0656  0.2584
    1W        W53380   9.907  11.922   2.302  0.3443 -0.3587  0.2130
    1W        W53381   0.315   0.919   6.860  0.1320  0.1393 -0.0440
    1W        W53382  19.186   5.632   2.971 -0.1238  0.0791  0.0910
    1W        W53383   1.775   7.600   8.472 -0.3982 -0.0947  0.0391
    1W        W53384   0.689   3.462   0.626  0.0470 -0.1924 -0.0508
    1W        W53385   6.093  27.848   6.066  0.0853 -0.2294 -0.2270
    1W        W53386   7.018  15.387   7.490  0.0554 -0.1600  0.1416
    1W        W53387  22.867  22.275   7.994  0.0415  0.1659  0.3218
    1W        W53388  13.112   5.021   2.739 -0.1042  0.1075  0.4711
    1W        W53389  19.787  14.235   7.545 -0.1674 -0.1347 -0.2568
    1W        W53390  13.069  13.655   6.300  0.3972  0.1454  0.1605
    1W        W53391   2.059  21.688   0.475 -0.0037 -0.1572 -0.3352
    1W        W53392  14.943   2.713   0.015  0.0626  0.1374 -0.2884
    1W        W53393  10.468  11.004   8.705  0.1195 -0.1713  0.0456
    1W        W53394   4.970   8.029   9.463  0.0880  0.0717 -0.1083
    1W        W53395   0.384   3.478   7.675  0.1275 -0.2395  0.0601
    1W        W53396  16.215   4.948   9.175  0.3030  0.0905 -0.1195
    1W        W53397  28.581   9.023   7.928 -0.1206 -0.1072  0.2816
    1W        W53398  26.159   1.514   7.194  0.1066  0.1371  0.1873
    1W        W53399   3.156  10.027   1.785 -0.0557 -0.1541  0.0689
    1W        W53400   6.790  23.160   1.181 -0.1285 -0.1576 -0.3511
    1W        W53401  22.955  18.341   0.382 -0.0935  0.2132 -0.1997
    1W        W53402  26.316  28.231   9.229 -0.1094  0.0872 -0.0144
    1W        W53403  23.928  11.755   8.705  0.3338  0.2673  0.0539
    1W        W53404   3.983  16.189   2.113  0.0604 -0.1468  0.0589
    1W        W53405  14.175   6.690   4.297  0.0081 -0.1542 -0.1014
    1W        W53406  21.191   3.350   7.878 -0.0516 -0.1087  0.0468
    1W        W53407  29.378  28.645   2.521  0.1671 -0.0470  0.1517
    1W        W53408  11.522  28.870   3.650  0.1755 -0.2464 -0.2089
    1W        W53409  16.078  25.750   5.838 -0.0192 -0.2929 -0.2471
    1W        W53410  29.659  22.248   1.456 -0.1924  0.0432 -0.1068
    1W        W53411   3.754   4.942   3.214  0.0968  0.1647  0.0496
    1W        W53412   2.518  16.553   2.115  0.0708 -0.0353 -0.0604
    1W        W53413  13.385  11.651   7.066  0.0539 -0.3277  0.3060
    1W        W53414   5.643  21.766   9.101 -0.0791  0.1999  0.3367
    1W        W53415   0.814  25.109   0.480  0.2624 -0.2008  0.0792
    1W        W53416  18.443  23.087   1.238 -0.1735  0.0576 -0.0664
    1W        W53417   6.350   6.137   6.873 -0.2107 -0.0311  0.0706
    1W        W53418  25.563  21.976   8.465 -0.1202 -0.2976  0.0550
    1W        W53419   2.204  29.203   7.592 -0.1915 -0.0808  0.2026
    1W        W53420  16.110   5.204   8.648  0.4861  0.0432 -0.1375
    1W        W53421  20.739   3.338   2.062 -0.1273 -0.0107  0.1237
    1W        W53422  11.276  11.157   7.443 -0.0105  0.1078 -0.1360
    1W        W53423  20.888   4.732   0.226 -0.0135  0.0517  0.2154
    1W        W53424  15.887   8.019   1.377  0.0978  0.1930  0.0272
    1W        W53425  25.921  22.382   8.283  0.1212 -0.2434  0.4004
    1W        W53426  16.453  22.579   0.490  0.2863  0.2385 -0.0566
    1W        W53427  15.861  21.964   8.472 -0.2239  0.1124 -0.1150
    1W        W53428  20.454  18.270   9.344  0.1355 -0.0224 -0.3235
    1W        W53429  20.801  29.687   9.356  0.1213  0.1840  0.0692
    1W        W53430   8.656   0.906   9.291  0.2003 -0.3195  0.1223
    1W        W53431  12.815  27.796   1.459  0.1536 -0.1242  0.3154
    1W        W53432  13.984  27.620   6.891 -0.0421 -0.1923 -0.3632
    1W        W53433  15.850  26.928   6.356  0.0581  0.0357  0.0525
    1W        W53434  19.127  13.502   0.466 -0.0623  0.1223  0.3116
    1W        W53435   9.870   9.883   7.078  0.0078  0.0440  0.2269
    1W        W53436   7.526  27.593   9.503 -0.0416  0.0271  0.2091
    1W        W53437  29.488   9.498   2.425 -0.1431  0.0945  0.3239
    1W        W53438  13.842   7.625   9.329  0.2094 -0.2651  0.0286
    1W        W53439   9.952  16.959   0.118  0.0324  0.2310 -0.1789
    1W        W53440  23.405  12.624   7.346  0.0866  0.1389  0.2448
    1W        W53441  16.353   9.809   1.513  0.0522 -0.0964 -0.2324
    1W        W53442  21.824   9.923   8.176 -0.1550 -0.0992  0.1365
    1W        W53443  23.341   5.495   3.049 -0.1628  0.1192 -0.0819
    1W        W53444   5.857  14.468   8.816 -0.0240 -0.4952  0.0712
    1W        W53445   0.378  11.838   0.085  0.1511 -0.1693  0.0625
    1W        W53446  16.051  10.348   7.566 -0.1639  0.0405 -0.3094
    1W        W53447  12.492  10.759   7.459  0.1424  0.1775  0.1784
    1W        W53448   4.464   1.063   0.703  0.0060 -0.0608  0.2429
    1W        W53449  26.236   5.146   7.746 -0.0265 -0.0711  0.0941
    1W        W53450  27.879  25.902   8.771  0.0106  0.0512 -0.0093
    1W        W53451   5.524  13.715   6.910  0.1545 -0.1476  0.0710
    1W        W53452  26.535   6.976   9.341  0.1718 -0.3826  0.1750
    1W        W53453   8.903   8.696   2.601 -0.0187  0.0049 -0.1236
    1W        W53454  13.788   3.152   7.964 -0.1214  0.3192  0.2552
    1W        W53455   3.336  16.658   2.290 -0.1679 -0.0315 -0.3639
    1W        W53456  13.660   3.066   8.487 -0.1951 -0.0345  0.0377
    1W        W53457  21.772  15.946   0.388 -0.1429  0.2763  0.1575
    1W        W53458   1.126  18.588   7.673 -0.4024  0.0961 -0.0457
    1W        W53459   9.770   8.674   2.252  0.0143 -0.0404  0.1219
    1W        W53460  26.230   8.463   2.534 -0.1034 -0.2306 -0.2485
    1W        W53461   0.435   6.204   8.368 -0.1369 -0.1342  0.2605
    1W        W53462  20.421   2.674   9.029 -0.1257  0.0024 -0.2490
    1W        W53463  16.111  21.149   0.348  0.0335 -0.0119  0.1167
    1W        W53464  22.841  29.043   0.003  0.0169  0.0983  0.1511
    1W        W53465  17.206  10.558   0.375 -0.0102 -0.1455 -0.2368
    1W        W53466   5.983   6.776   1.389 -0.1265  0.1836 -0.0416
    1W        W53467  17.758  18.504   7.611 -0.0870  0.0727 -0.2423
    1W        W53468  27.376   3.274   8.640 -0.4583  0.1581  0.0362
    1W        W53469   1.574  21.771   8.456 -0.1957  0.0771 -0.3337
    1W        W53470  17.604  23.201   8.641  0.0191  0.0437  0.0438
    1W        W53471   0.694  28.706   1.632 -0.2982 -0.3015 -0.3914
    1W        W53472   7.029  21.297   6.277 -0.2812 -0.0823 -0.0865
    1W        W53473  16.781   7.995   9.055 -0.1561  0.1778 -0.3453
    1W        W53474   8.507  16.229   1.735 -0.1830 -0.3564  0.0392
    1W        W53475   9.849   5.861   0.618 -0.2329 -0.1083  0.1191
    1W        W53476   8.005  12.727   1.231 -0.1396 -0.1899  0.3647
    1W        W53477   6.140  11.329   8.796 -0.0012  0.1805 -0.2955
    1W        W53478  15.951   7.638   0.565 -0.4479  0.1357  0.0188
    1W        W53479  29.558   8.954   8.477 -0.0630 -0.0798  0.1736
    1W        W53480   2.165  22.747   0.587  0.0719  0.3800  0.1321
    1W        W53481   6.392   6.421   1.351  0.1703  0.4538  0.1099
    1W        W53482  23.471  27.135   1.178  0.3916 -0.0802  0.1298
    1W        W53483  26.202  21.840   8.466 -0.5046 -0.0061 -0.0952
    1W        W53484  21.417  17.810   6.650 -0.0294 -0.0851  0.1108
    1W        W53485  29.177  14.749   0.176 -0.0080 -0.1211  0.2649
    1W        W53486  10.820  17.556   8.769  0.0913  0.1774 -0.2841
    1W        W53487   6.762   6.522   9.136 -0.3760  0.2467  0.1881
    1W        W53488   1.079  15.028   2.012  0.0969 -0.0372 -0.1095
    1W        W53489  13.200  12.920   1.020 -0.0812 -0.1086  0.2463
    1W        W53490  16.568   1.086   0.949 -0.0371  0.4163  0.0181
    1W        W53491  22.202  28.394   7.883  0.4060 -0.0460  0.1395
    1W        W53492  12.694   0.933   7.855  0.1467  0.3682 -0.1509
    1W        W53493  13.964  24.208   8.217  0.1090 -0.0337  0.0514
    1W        W53494  12.239  13.247   9.292  0.2151 -0.2713 -0.0124
    1W        W53495  26.522   2.565   8.746 -0.4351  0.1838  0.2681
    1W        W53496   5.975  21.313   8.657 -0.0155  0.0826  0.1646
    1W        W53497  15.485  19.936   6.760  0.0128 -0.0683  0.1427
    1W        W53498  24.791   5.871   2.279 -0.0443 -0.0257 -0.0991
    1W        W53499  13.211  14.225   8.157 -0.0761  0.0562 -0.1375
    1W        W53500  21.038  26.191   9.509  0.0113  0.0186  0.0228
    1W        W53501  21.441   2.371   8.685 -0.2585 -0.1474  0.1972
    1W        W53502   8.573  13.498   0.787 -0.1076 -0.1509 -0.2038
    1W        W53503   2.286  27.758   8.592  0.1790 -0.0958  0.1980
    1W        W53504  12.753   2.928   8.853  0.1384 -0.2452  0.1919
    1W        W53505   3.209  24.611   7.652 -0.0974 -0.1658 -0.0353
    1W        W53506  11.363   3.357   0.135  0.2406 -0.2342 -0.2144
    1W        W53507  25.106   5.451   2.492  0.0014 -0.0159 -0.3270
    1W        W53508  18.650  14.358   0.329 -0.1069  0.3698  0.1367
    1W        W53509   3.874   9.881   3.018 -0.1281 -0.0895  0.1922
    1W        W53510   3.314  22.188   0.742 -0.2435 -0.1598  0.1651
    1W        W53511  15.938   6.288   0.304 -0.1142  0.2683 -0.1689
    1W        W53512  23.818   2.708   7.337  0.0292 -0.0633 -0.1679
    1W        W53513  22.544  23.633   0.624  0.1946  0.0124  0.0609
    1W        W53514  15.455  14.172   7.320 -0.0033 -0.0320  0.0833
    1W        W53515  19.233   7.905   8.053  0.1874 -0.2005  0.0733
    1W        W53516  13.148  13.172   9.271 -0.2056 -0.2090  0.0546
    1W        W53517  11.815  27.609   8.203  0.0325  0.0037  0.2492
    1W        W53518  26.096  18.945   6.818 -0.2174 -0.2615 -0.0242
    1W        W53519   3.823  12.760   8.043 -0.1641 -0.3265  0.2483
    1W        W53520  13.252  24.852   5.562 -0.0449 -0.1222  0.0187
    1W        W53521  10.906   7.173   1.044 -0.0581  0.0249  0.0263
    1W        W53522  28.603  15.771   2.319  0.1655 -0.1881  0.1776
    1W        W53523  17.629  25.615   8.715  0.2346 -0.0390  0.0634
    1W        W53524   6.042  16.747   2.348  0.1819  0.1556  0.4137
    1W        W53525   7.868  17.583   1.511 -0.0016  0.0476 -0.1118
    1W        W53526  29.150  26.048   6.808  0.1580 -0.1225  0.2714
    1W        W53527  14.665   9.639   8.730 -0.0930  0.0111 -0.0740
    1W        W53528  14.387   2.909   3.608 -0.0323  0.0851 -0.3529
    1W        W53529  11.042  13.403   8.906 -0.2401  0.1129 -0.1060
    1W        W53530  11.950  19.858   0.613 -0.2999  0.0024  0.2264
    1W        W53531  23.201  21.749   1.867 -0.0948  0.1613 -0.4245
    1W        W53532   4.589  24.369   5.308  0.0902  0.1298  0.0867
    1W        W53533  23.593  25.339   3.160  0.0243 -0.0639 -0.0316
    1W        W53534  20.141   9.305   1.043 -0.0790  0.4508  0.2423
    1W        W53535  26.995  18.967   0.814  0.2514  0.3404 -0.0188
    1W        W53536  20.395  28.838   0.233  0.0578 -0.0436  0.2906
    1W        W53537  15.356  16.686   2.366  0.0450  0.1807 -0.1021
    1W        W53538   8.438  10.087   2.956 -0.1328  0.1627  0.1553
    1W        W53539  22.737  26.360   2.085  0.2170 -0.2363  0.1837
    1W        W53540  28.019   0.242   2.672  0.0057 -0.3693 -0.4170
    1W        W53541  21.653  15.495   9.179 -0.0767 -0.1794 -0.1657
    1W        W53542  24.021   2.301   8.391 -0.1297 -0.2076  0.1767
    1W        W53543  12.626  19.347   1.634  0.3951  0.0128 -0.3765
    1W        W53544  10.948   1.343   8.379  0.1323 -0.0153 -0.1545
    1W        W53545   1.283  26.401   5.241  0.0775  0.0470  0.0854
    1W        W53546   1.452  10.435   6.359  0.3513  0.4074  0.2456
    1W        W53547   5.996  22.220   5.726 -0.0321 -0.3357 -0.2977
    1W        W53548  11.923  27.452   0.163  0.2482 -0.2703 -0.3096
    1W        W53549   1.922  15.104   7.686 -0.3056  0.1394  0.0852
    1W        W53550   3.783  17.076   8.024  0.0498  0.0054  0.2552
    1W        W53551   6.360  21.465   6.880 -0.2565  0.0631 -0.1111
    1W        W53552   3.420   6.136   7.322 -0.2133 -0.1901  0.2190
    1W        W53553  15.429   0.900   8.582  0.1996  0.3105 -0.1000
    1W        W53554  24.353  19.127   8.090 -0.0010  0.1137 -0.2751
    1W        W53555  19.542   0.030   2.814  0.0691  0.0352 -0.1006
    1W        W53556  11.938  24.872   1.079  0.1578  0.1161  0.3012
    1W        W53557  14.850  16.766   7.012  0.0314 -0.0200  0.0835
    1W        W53558  18.734  20.284   0.743  0.1622 -0.0825 -0.0971
    1W        W53559   6.815  15.160   1.159 -0.2281 -0.3242  0.0990
    1W        W53560  26.739  20.831   8.467 -0.3027 -0.0921 -0.0062
    1W        W53561   3.394  10.087   1.292 -0.3565 -0.2847  0.0407
    1W        W53562   0.763  10.790   2.066 -0.4253 -0.1229  0.0772
    1W        W53563  13.803   0.905   7.855 -0.0595 -0.2050  0.1574
    1W        W53564  25.538  25.051   1.311 -0.0455  0.0792 -0.2846
    1W        W53565   2.332  25.539   9.464  0.1062  0.2495 -0.0629
    1W        W53566  25.510  25.642   9.433  0.1027  0.0377 -0.0552
    1W        W53567   3.505  16.626   8.352 -0.1225 -0.0964 -0.1718
    1W        W53568   1.402  26.036   6.084 -0.0008  0.3123  0.2592
    1W        W53569  18.004  28.475   8.938 -0.0525  0.1598 -0.3416
    1W        W53570  26.996   7.495   7.794  0.4280  0.2079 -0.0281
    1W        W53571  21.384  23.004   1.536 -0.3719  0.0975 -0.1230
    1W        W53572  10.877   1.618   7.914  0.1515  0.3445  0.0744
    1W        W53573  18.495   1.788   3.103  0.0969 -0.0373 -0.2244
    1W        W53574  29.702   6.270   0.430  0.2656  0.3204  0.1447
    1W        W53575   3.377   1.924   9.287 -0.0241  0.0309 -0.0062
    1W        W53576  17.278  15.288   7.637  0.0319 -0.1056 -0.3647
    1W        W53577  19.331  29.554   3.203 -0.1214  0.1814 -0.0757
    1W        W53578  19.609  10.868   1.328  0.3036 -0.0241 -0.1946
    1W        W53579   8.914   5.812   8.433  0.0289 -0.1155  0.1186
    1W        W53580  17.011  14.882   9.251  0.0897  0.1184 -0.3338
    1W        W53581  16.029  28.146   8.728 -0.0374 -0.1609  0.1519
    1W        W53582   2.968   7.860   8.847 -0.0045 -0.2867  0.0133
    1W        W53583   3.179  28.564   6.388  0.0303 -0.1698  0.0163
    1W        W53584  20.382  17.029   8.843 -0.1344 -0.0713 -0.3751
    1W        W53585  15.295  28.785   9.017 -0.0953 -0.0633  0.0529
    1W        W53586  15.537  27.997   8.011 -0.1568  0.1261  0.3732
    1W        W53587  12.849  21.706   6.693  0.1054  0.0022 -0.1734
    1W        W53588   8.289   1.976   6.982 -0.0474  0.2136 -0.0066
    1W        W53589   7.784   2.246   9.368 -0.0026  0.0775  0.0707
    1W        W53590  22.438  24.193   0.526  0.0376 -0.1338 -0.1951
    1W        W53591  20.441   0.862   7.956 -0.0383 -0.1297  0.0565
    1W        W53592   8.115   5.288   0.437 -0.0999  0.0840  0.4723
    1W        W53593   7.061  11.865   7.494 -0.0878 -0.2812  0.1920
    1W        W53594  22.656  22.877   9.498  0.1529 -0.1590  0.2968
    1W        W53595  16.506  20.305   0.814  0.2478 -0.0519  0.1683
    1W        W53596  13.529  26.679   1.487 -0.0684 -0.0889  0.0569
    1W        W53597  18.372  12.681   1.778 -0.2658  0.1267 -0.1471
    1W        W53598  20.000  12.154   2.167  0.2802 -0.0062  0.0997
    1W        W53599  28.094  18.898   0.066 -0.0691 -0.1343  0.0329
    1W        W53600  20.561  20.218   7.502 -0.1038 -0.1668  0.1270
    1W        W53601  15.453  14.044   1.834  0.2346  0.0381  0.0546
    1W        W53602  29.210   1.894   9.031 -0.2757 -0.1174 -0.1312
    1W        W53603  23.456  29.746   7.156  0.1974 -0.0809 -0.1295
    1W        W53604  12.000  14.680   0.491  0.0330 -0.2140  0.2427
    1W        W53605   0.488  25.198   7.995  0.3054 -0.1040  0.0459
    1W        W53606  19.447  17.509   7.622 -0.0126 -0.1156  0.1671
    1W        W53607   4.675  22.822   7.908  0.0550 -0.0816  0.2212
    1W        W53608  21.341   1.903   8.883 -0.3597  0.0772 -0.0211
    1W        W53609  17.252   9.657   1.903 -0.1307 -0.0579 -0.1312
    1W        W53610   7.413  11.083   0.378  0.0351 -0.2774  0.1010
    1W        W53611   6.410  29.770   7.268  0.0543 -0.1838 -0.1584
    1W        W53612   8.522  28.355   0.382 -0.2061 -0.1550  0.3199
    1W        W53613  20.046   8.585   9.091  0.0071  0.0524 -0.2415
    1W        W53614   9.667   5.508   8.724  0.1662  0.0793 -0.0078
    1W        W53615   0.812   6.735   1.906  0.2298  0.2105 -0.2925
    1W        W53616  19.536   3.631   1.546  0.0963 -0.1022  0.2757
    1W        W53617  11.919  20.263   7.167 -0.1440 -0.2367 -0.1211
    1W        W53618  24.316   7.457   8.921 -0.3014  0.1484  0.0761
    1W        W53619  26.847  17.210   2.075  0.1397 -0.1360 -0.0068
    1W        W53620  17.810  11.508   2.091  0.2511  0.1435 -0.0207
    1W        W53621  15.084   3.674   9.307 -0.0019 -0.0694  0.1943
    1W        W53622  16.212   9.702   1.992 -0.1518 -0.2538 -0.1389
    1W        W53623  17.275  14.303   1.986 -0.1853 -0.1857 -0.2082
    1W        W53624   2.979  22.465   8.324  0.0105 -0.3142  0.3571
    1W        W53625  25.854  22.186   1.894 -0.0604  0.3551  0.2750
    1W        W53626   6.159  16.950   8.216  0.0869  0.0925  0.2390
    1W        W53627   3.466  18.081   2.066  0.1143 -0.1476  0.0617
    1W        W53628   6.274  17.539   6.291  0.0847 -0.1367 -0.2396
    1W        W53629  10.854  28.808   2.184  0.3642  0.0088 -0.0070
    1W        W53630  22.370  12.428   8.094  0.1538 -0.4514 -0.4226
    1W        W53631  16.359  16.570   1.492 -0.1714 -0.2840 -0.0957
    1W        W53632   2.505   0.443   1.990 -0.1755 -0.0730 -0.0010
    1W        W53633  19.171  14.931   7.188  0.3258  0.0007 -0.2223
    1W        W53634   8.610  16.792   1.465  0.1448  0.0715 -0.2486
    1W        W53635  12.774  29.135   3.204 -0.0041  0.0655 -0.1986
    1W        W53636  28.529  25.603   1.758 -0.1287 -0.0185 -0.0163
    1W        W53637  16.016   6.345   7.875 -0.2482  0.0526  0.2087
    1W        W53638  21.107  29.816   0.218 -0.4188  0.0654 -0.0316
    1W        W53639   7.817  23.658   7.653  0.1246 -0.2781 -0.0353
    1W        W53640  14.129  25.410   8.011  0.1054 -0.1044 -0.0884
    1W        W53641  23.448  18.838   6.909 -0.1438 -0.1166  0.4239
    1W        W53642  23.432  28.592   2.207  0.1957 -0.6276 -0.0060
    1W        W53643  22.977   5.276   4.109 -0.1225  0.0055 -0.0873
    1W        W53644   9.693  10.503   7.074  0.0812 -0.0482 -0.0568
    1W        W53645   6.336  23.130   1.684  0.1116 -0.0563 -0.0242
    1W        W53646  25.134   0.542   7.438  0.1458  0.0022 -0.0064
    1W        W53647  14.316  26.184   8.638 -0.2023 -0.2771  0.2520
    1W        W53648  29.115  14.020   0.584  0.1449 -0.0805  0.0783
    1W        W53649   9.414   4.631   4.072  0.2690  0.0884 -0.0811
    1W        W53650  24.524   6.831   0.724 -0.0867 -0.1400 -0.0375
    1W        W53651  13.588  18.453   6.729  0.3475 -0.1238  0.0447
    1W        W53652  17.461  29.641   8.251 -0.1039  0.2188  0.3849
    1W        W53653   3.731   9.127   7.550 -0.0202  0.1271 -0.0187
    1W        W53654   5.709  29.424   0.358 -0.0391  0.0287  0.4656
    1W        W53655  16.151  23.478   6.356  0.1314  0.1686 -0.3259
    1W        W53656   8.338  26.796   6.814  0.0169  0.5299  0.1131
    1W        W53657   6.602   8.344   6.258 -0.0533 -0.2727  0.0476
    1W        W53658  23.571  27.785   1.966 -0.0163  0.2228  0.3381
    1W        W53659   8.170  29.830   3.172 -0.0918  0.1500  0.2236
    1W        W53660  27.839   4.983   1.864  0.0287  0.1176 -0.1163
    1W        W53661   7.646   0.683   2.386  0.2782  0.3320 -0.1114
    1W        W53662  12.310   3.324   8.780  0.1910 -0.1441  0.4841
    1W        W53663   7.894  26.682   7.662 -0.0066 -0.0623  0.0500
    1W        W53664   9.609  14.586   6.709 -0.1338  0.0367  0.0765
    1W        W53665  13.926   2.617   3.747 -0.1927  0.0336  0.3113
    1W        W53666  18.588  24.430   8.312  0.0301 -0.0643 -0.0101
    1W        W53667   6.326   2.499   2.969  0.0105  0.1082 -0.0901
    1W        W53668  17.233  16.804   7.172  0.0855  0.0861  0.1709
    1W        W53669   6.470  22.195   0.338  0.0864  0.1428  0.2359
    1W        W53670  21.874  29.178   0.181 -0.3939  0.1932 -0.2399
    1W        W53671  16.659   7.412   8.970  0.1879 -0.0408  0.0043
    1W        W53672  29.660  11.365   8.021  0.0593  0.1584 -0.1172
    1W        W53673  15.597   6.536   0.603 -0.1481  0.1089  0.0338
    1W        W53674   0.291  16.902   8.580 -0.0790  0.0267 -0.1970
    1W        W53675  28.557  22.822   7.304 -0.5008 -0.1357  0.0703
    1W        W53676  21.437  20.094   6.430 -0.0721  0.1391 -0.1173
    1W        W53677   6.523  21.936   6.678 -0.2717  0.1461  0.0356
    1W        W53678   8.066  18.873   6.485  0.1903  0.0785  0.4034
    1W        W53679  15.997  25.993   0.513  0.1901  0.2018 -0.3456
    1W        W53680   5.648  28.307   9.199 -0.0664  0.1798  0.1582
    1W        W53681   5.098  12.840   7.240 -0.1075 -0.2407 -0.2714
    1W        W53682   8.510  20.019   1.071  0.1965  0.0813 -0.0055
    1W        W53683   2.074   7.353   9.354 -0.1898 -0.3441 -0.1762
    1W        W53684  22.021  29.455   7.975  0.0464  0.1119 -0.1148
    1W        W53685   3.346  13.481   7.806  0.3625 -0.0106  0.4025
    1W        W53686  21.095  22.634   1.818  0.0045 -0.1382  0.3717
    1W        W53687   7.964   3.448   1.501 -0.2702 -0.1689 -0.3852
    1W        W53688  15.698  17.935   8.817 -0.1655 -0.0413 -0.1334
    1W        W53689  29.615  27.721   9.163 -0.1115  0.2350 -0.2968
    1W        W53690   8.910  27.702   6.329 -0.1597  0.1094 -0.1093
    1W        W53691  17.326   3.817   8.991 -0.0155  0.4155 -0.0275
    1W        W53692  15.472  20.124   9.195  0.1743 -0.0806 -0.0206
    1W        W53693  24.628  13.238   7.796 -0.1410 -0.2682 -0.0104
    1W        W53694  14.324  25.846   6.419  0.2178 -0.0210 -0.2672
    1W        W53695   2.763  15.872   6.754 -0.0284 -0.0242  0.2019
    1W        W53696  25.970  26.256   2.075  0.3167 -0.1391  0.2313
    1W        W53697  15.572  15.608   8.239  0.2061 -0.0563 -0.1383
    1W        W53698   6.970   2.276   9.321 -0.1000  0.2739 -0.0176
    1W        W53699  12.465   4.889   9.152 -0.2353  0.1386 -0.0593
    1W        W53700  14.754  26.175   7.746  0.0045 -0.1243 -0.2943
    1W        W53701   2.919  10.073   9.367  0.3280  0.2891 -0.1218
    1W        W53702  17.018   0.122   2.749  0.0327 -0.0077 -0.2527
    1W        W53703   4.511  20.744   0.037  0.1906 -0.0669 -0.0796
    1W        W53704  16.957  28.186   3.415 -0.1849 -0.2751  0.0179
    1W        W53705  28.661  16.843   8.908  0.2043  0.3893  0.0782
    1W        W53706   7.824   7.629   7.578  0.0709 -0.2389  0.0309
    1W        W53707   7.649  25.561   6.699  0.3170 -0.0565  0.0255
    1W        W53708  22.309  20.851   6.096  0.0472 -0.0789  0.5588
    1W        W53709  26.240   8.491   3.068  0.0517  0.2146  0.0937
    1W        W53710  26.758  27.634   8.535  0.0136 -0.0264  0.2473
    1W        W53711  12.738  13.984   6.172  0.2702 -0.0038  0.0248
    1W        W53712  14.398  14.400   6.523 -0.0991 -0.0882  0.3544
    1W        W53713  11.373  13.652   1.733  0.3812  0.0493 -0.1344
    1W        W53714  16.953   3.686   8.667 -0.0679 -0.0957  0.0387
    1W        W53715  29.317  10.570   8.582 -0.0716 -0.1910 -0.2276
    1W        W53716  17.577  25.701   2.248 -0.0917 -0.1375 -0.0387
    1W        W53717   8.283   9.582   0.326 -0.3773  0.0599  0.2033
    1W        W53718  19.344  27.294   9.516  0.0044  0.1531  0.1158
    1W        W53719  18.766  23.214   6.654  0.1728  0.1393  0.1458
    1W        W53720   9.168   7.855   8.965  0.2340 -0.0175 -0.2524
    1W        W53721  11.297  24.122   0.895 -0.1252 -0.0201  0.3055
    1W        W53722  15.259  26.411   8.809  0.2151 -0.2069 -0.1722
    1W        W53723  13.850   2.280   1.685  0.0750  0.0664  0.2120
    1W        W53724   8.996   3.003   1.892 -0.0325 -0.0755 -0.0263
    1W        W53725  29.088  13.136   3.223  0.3929 -0.0780 -0.0812
    1W        W53726  28.265   4.322   2.342  0.0795 -0.2398  0.2815
    1W        W53727   8.313   9.938   7.953 -0.3121 -0.0460  0.3922
    1W        W53728  10.370  20.413   8.718  0.0241  0.4854  0.2690
    1W        W53729  24.578   1.663   7.918 -0.3032  0.0271  0.0495
    1W        W53730   6.109   7.781   2.405  0.1549  0.2800  0.4788
    1W        W53731   2.877  29.624   7.184  0.1015  0.0414  0.0099
    1W        W53732  28.351  10.874   0.345 -0.0070  0.0111  0.2299
    1W        W53733  12.247  23.661   0.484 -0.0920  0.1227 -0.0448
    1W        W53734  10.527  23.757   6.114 -0.3480  0.0627 -0.1706
    1W        W53735  24.041  18.853   7.776 -0.1107 -0.0635  0.0882
    1W        W53736  22.433   2.429   3.033  0.0429  0.1457  0.0064
    1W        W53737  14.321  27.585   1.135  0.1139  0.1383 -0.1825
    1W        W53738  27.084  23.048   9.478  0.2867 -0.1197  0.1394
    1W        W53739  11.526   4.256   0.832 -0.0254 -0.1800  0.0253
    1W        W53740  16.894   2.640   1.291 -0.0660 -0.0174  0.0324
    1W        W53741   9.729  17.573   1.606  0.1818  0.1256  0.1778
    1W        W53742   8.839  14.958   8.909 -0.0196  0.1704  0.2798
    1W        W53743  21.979  19.390   7.953 -0.0883  0.1327 -0.1651
    1W        W53744  17.438  24.439   7.589 -0.1606 -0.0462 -0.2242
    1W        W53745  17.342  19.646   7.050 -0.1145 -0.1269  0.2121
    1W        W53746   6.785  27.919   6.717  0.0038  0.0577 -0.0805
    1W        W53747   4.279   1.622   1.401  0.2285 -0.1160 -0.1005
    1W        W53748  21.667  24.009   6.716 -0.0119 -0.2035  0.0542
    1W        W53749  21.409   5.129   3.094  0.0366 -0.2525 -0.0261
    1W        W53750   0.404   7.524   0.633 -0.1940  0.2336 -0.0621
    1W        W53751  21.033  25.648   1.298  0.0504  0.0395  0.0371
    1W        W53752   0.471  13.402   2.576 -0.1430 -0.0053  0.1443
    1W        W53753   3.662   1.020   8.801  0.1184 -0.2347 -0.0985
    1W        W53754  12.528  18.689   6.986  0.0898 -0.0766 -0.2116
    1W        W53755   7.529  24.561   8.822  0.2472 -0.0837  0.4822
    1W        W53756  27.009  27.681   7.636 -0.0984  0.1608 -0.0609
    1W        W53757  22.836  21.734   0.965 -0.2349  0.0314 -0.4535
    1W        W53758  28.310  11.987   8.896  0.1903  0.1683  0.2913
    1W        W53759  26.723  18.946   6.229  0.0377 -0.1465 -0.2277
    1W        W53760  10.629   0.177   2.658 -0.2488  0.1882 -0.0508
    1W        W53761  15.335  17.232   0.123 -0.2204 -0.2173  0.1225
    1W        W53762  21.027  20.704   9.011 -0.2517  0.1280  0.0137
    1W        W53763   1.912  25.155   9.416  0.3081  0.0408 -0.0439
    1W        W53764  23.906   9.312   2.029 -0.0146 -0.2388 -0.0814
    1W        W53765  27.708   0.851   0.937  0.0986 -0.2251  0.0197
    1W        W53766  20.767  24.442   0.268 -0.0489 -0.0421  0.2200
    1W        W53767  10.200   3.959   0.758 -0.1064  0.2696 -0.2254
    1W        W53768   9.156  18.713   1.379 -0.1444  0.0486 -0.1035
    1W        W53769  10.978  19.600   8.420  0.2025 -0.1706 -0.1125
    1W        W53770   5.776  15.277   8.148  0.4106  0.0907 -0.0046
    1W        W53771  15.604  20.451   6.796  0.1661  0.0206  0.0221
    1W        W53772   9.095  11.438   0.515  0.2417  0.6997 -0.4250
    1W        W53773  15.333  22.169   7.112  0.2053  0.1764 -0.0520
    1W        W53774  24.475   0.686   7.820  0.1582 -0.1063 -0.2043
    1W        W53775  21.839   9.932   0.522  0.1391  0.0750 -0.0130
    1W        W53776  20.404   5.724   3.232  0.2663  0.2517  0.0085
    1W        W53777   0.451  15.281   6.240 -0.4473  0.1777  0.0526
    1W        W53778   4.578  25.969   1.432 -0.3473 -0.0226  0.0238
    1W        W53779  12.033  24.583   0.285  0.1477 -0.1283 -0.1071
    1W        W53780  19.615   4.325   2.857  0.0800 -0.0856 -0.1583
    1W        W53781   0.521  15.400   0.402  0.1278 -0.0383 -0.3309
    1W        W53782  10.674   1.173   3.452 -0.1768  0.2283 -0.3556
    1W        W53783  25.298   8.297   9.176  0.2928  0.1643  0.1129
    1W        W53784   5.229  24.735   9.061 -0.1532  0.2115 -0.1448
    1W        W53785  11.480  29.174   3.087 -0.1037  0.0772  0.0051
    1W        W53786  15.550   0.668   1.208 -0.1149  0.0370 -0.1967
    1W        W53787   6.569  23.070   0.737  0.0009  0.1572  0.3583
    1W        W53788  23.494  27.834   7.548  0.0077  0.1569 -0.2125
    1W        W53789  11.101  19.354   0.048 -0.0631 -0.0913 -0.0239
    1W        W53790  21.493  28.775   2.701 -0.1087 -0.0329 -0.0565
    1W        W53791  10.421  15.619   6.559 -0.2232  0.3013 -0.1377
    1W        W53792  10.237  27.263   7.262 -0.3563  0.0822 -0.0996
    1W        W53793  25.377   8.045   8.356 -0.0005  0.4303  0.0291
    1W        W53794  11.680  22.872   8.268  0.1383 -0.1158 -0.1552
    1W        W53795   4.235  22.463   6.577 -0.1060  0.0748  0.0161
    1W        W53796  13.840  15.078   6.544  0.1850  0.0459  0.0233
    1W        W53797  26.400  21.157   0.198 -0.0001  0.0640  0.0116
    1W        W53798  23.515   6.414   9.290  0.1092 -0.1987  0.1067
    1W        W53799   1.331  20.368   7.343  0.0605  0.3635 -0.0007
    1W        W53800   7.888  19.205   2.690 -0.1336  0.2669 -0.2699
    1W        W53801  15.640  23.562   9.152 -0.0305  0.2687 -0.0587
    1W        W53802  10.845  23.896   7.278  0.1878 -0.2127 -0.0349
    1W        W53803  13.999  28.688   7.776 -0.1974 -0.2100  0.3025
    1W        W53804  10.316  11.791   7.337 -0.3674 -0.1012 -0.1668
    1W        W53805   2.666   5.069   9.085 -0.0506  0.0806 -0.1955
    1W        W53806  10.792  23.944   2.143 -0.0043 -0.0716 -0.2633
    1W        W53807   5.027   3.049   1.645 -0.0032  0.0154 -0.1178
    1W        W53808  16.291  15.418   2.631 -0.3255 -0.0970  0.0947
    1W        W53809   7.684   1.840   7.768 -0.0337 -0.1167  0.0014
    1W        W53810   2.452   9.622   0.506  0.0480  0.1316  0.0680
    1W        W53811  11.545   1.876   2.988  0.2229  0.1312 -0.1793
    1W        W53812  14.774  13.000   2.167 -0.1104 -0.2148  0.0736
    1W        W53813  18.823  10.426   9.256  0.3742  0.0782 -0.1933
    1W        W53814   0.114   6.620   3.162  0.2870  0.0869  0.0811
    1W        W53815  29.294   2.035   2.233 -0.1243  0.1958  0.1948
    1W        W53816   3.187   9.937   8.121 -0.1589 -0.0346 -0.1875
    1W        W53817  20.299  10.988   1.950  0.3691 -0.1534 -0.1477
    1W        W53818  13.824   9.894   2.151  0.1124  0.3352 -0.0033
    1W        W53819  16.483  18.061   8.092 -0.0761 -0.0946 -0.1922
    1W        W53820  17.052   6.649   3.387 -0.1436 -0.2833 -0.0549
    1W        W53821  15.044   8.874   2.852  0.1047 -0.0257 -0.0692
    1W        W53822  17.828  17.344   8.575  0.3595  0.0819  0.2694
    1W        W53823   5.973  25.429   8.153  0.0103 -0.0881  0.0652
    1W        W53824   5.631  27.255   6.311  0.2375  0.3929  0.1981
    1W        W53825  16.682  23.694   1.504 -0.2772  0.0009 -0.1566
    1W        W53826   7.170  22.187   5.531  0.1385 -0.1060 -0.0681
    1W        W53827   2.653  29.289   1.538 -0.0630 -0.3454  0.2622
    1W        W53828  11.262  10.726   0.140 -0.1982 -0.0378  0.2081
    1W        W53829  22.798   0.266   7.923 -0.0238  0.2768  0.0649
    1W        W53830   3.580  14.516   6.765 -0.1886 -0.2614  0.0156
    1W        W53831  24.149  21.929   8.120  0.1666  0.0738  0.2208
    1W        W53832   5.634  13.054   7.162 -0.0228  0.3818 -0.1197
    1W        W53833   3.941   1.533   0.875 -0.1959  0.0256 -0.2890
    1W        W53834   0.128   1.836   1.202  0.2397  0.2992  0.2733
    1W        W53835   9.414  10.073   0.251  0.1446 -0.0423 -0.1096
    1W        W53836  23.904  13.815   2.033 -0.1791  0.0293  0.1504
    1W        W53837   9.120   6.590   1.045  0.0237  0.1472 -0.0062
    1W        W53838   9.735   4.471   8.234  0.0512  0.1444  0.2080
    1W        W53839   9.878  15.273   8.821 -0.0128 -0.1056  0.0210
    1W        W53840   5.247   5.436   9.041 -0.3247  0.1455 -0.2560
    1W        W53841   7.842  21.976   0.043  0.1486 -0.0958 -0.0297
    1W        W53842   6.670  16.075   9.060 -0.2973 -0.1477  0.0491
    1W        W53843  17.504   7.902   1.082  0.1093 -0.0637 -0.2197
    1W        W53844   1.903   0.688   1.282  0.1610  0.0268  0.1636
    1W        W53845  19.383  19.071   1.061 -0.3642 -0.3090  0.1019
    1W        W53846   4.135  23.896   6.748 -0.2664  0.1165 -0.1078
    1W        W53847   8.798   8.806   7.482 -0.0837 -0.2514 -0.3248
    1W        W53848  22.960  23.948   8.531 -0.0965  0.0161 -0.1267
    1W        W53849  29.151   1.377   0.965  0.1728 -0.1278  0.0296
    1W        W53850  15.255   5.514   0.148 -0.0009 -0.2061 -0.4036
    1W        W53851  22.990  20.543   1.377 -0.1796  0.0890 -0.0034
    1W        W53852  21.158  18.249   0.393 -0.3156 -0.5098  0.0461
    1W        W53853  10.342  18.371   1.819  0.0379  0.2431  0.0765
    1W        W53854   3.013   3.673   7.244 -0.4797 -0.1786 -0.0082
    1W        W53855   5.391   6.505   2.183 -0.0393 -0.0008  0.1233
    1W        W53856   1.859  29.537   7.692  0.0159 -0.1850 -0.0607
    1W        W53857   5.253  18.261   1.340  0.0556  0.0325  0.1699
    1W        W53858  16.584   2.105   2.322 -0.1391  0.0037 -0.2123
    1W        W53859  28.477   3.199   7.930  0.3471  0.0751  0.0100
    1W        W53860  13.993  11.305   6.678  0.1599 -0.2878 -0.1679
    1W        W53861  14.006  15.650   7.309 -0.0570 -0.1390 -0.1566
    1W        W53862  13.778  14.399   1.425 -0.1232  0.1463 -0.1459
    1W        W53863  12.331  15.148   2.087 -0.4288  0.0396  0.0806
    1W        W53864  15.023   5.783   8.654 -0.0471 -0.3139  0.0136
    1W        W53865   2.480  25.000   1.842  0.0755 -0.1417 -0.0045
    1W        W53866  25.964   1.267   6.787  0.0290  0.0835 -0.0908
    1W        W53867  21.978  24.276   6.497  0.1371  0.0357  0.1050
    1W        W53868  14.752  15.066   7.425  0.0240 -0.0024 -0.2118
    1W        W53869   1.108   5.578   7.343 -0.0316  0.0810 -0.1575
    1W        W53870   9.610   3.925   1.611  0.2313 -0.1953 -0.1803
    1W        W53871   9.161  19.198   9.246 -0.0050  0.2269 -0.1901
    1W        W53872   1.122   9.052   0.624  0.2080 -0.0573  0.1658
    1W        W53873  15.957  20.425   7.505  0.0937 -0.0731  0.1445
    1W        W53874  16.831   1.490   2.697 -0.1985  0.1605 -0.0651
    1W        W53875  17.265   7.401   1.166  0.2387  0.2874  0.0257
    1W        W53876  12.179   4.654   7.199 -0.1995 -0.3001  0.2733
    1W        W53877  20.384  19.269   1.828 -0.3903 -0.2844 -0.1405
    1W        W53878  29.112   9.973   9.049  0.1713 -0.1667 -0.0403
    1W        W53879   9.109  18.709   8.355 -0.1807 -0.2312 -0.1655
    1W        W53880  19.027   4.759   1.022 -0.0212 -0.0355  0.0471
    1W        W53881   8.748  23.008   1.162 -0.1834 -0.0856 -0.0586
    1W        W53882  11.692   9.334   0.261  0.3049 -0.1006 -0.0575
    1W        W53883  19.073  24.394   1.319  0.1851 -0.0837 -0.0492
    1W        W53884  29.197  13.120   8.291 -0.1452  0.1514 -0.2867
    1W        W53885  29.097   0.798   2.142 -0.1658  0.3503 -0.2414
    1W        W53886  18.832  16.765   1.494 -0.1555  0.2565 -0.0024
    1W        W53887   6.062  29.426   1.424 -0.2534 -0.2321  0.1884
    1W        W53888  27.452  16.677   7.928 -0.0568  0.1029  0.1439
    1W        W53889  21.510  10.192   0.861  0.1595  0.3911 -0.0113
    1W        W53890   4.625  29.138   8.705 -0.0382 -0.3010 -0.3977
    1W        W53891   1.137  10.016   6.703 -0.2384 -0.1463 -0.1369
    1W        W53892  16.431  19.811   7.660  0.1701  0.1361 -0.1623
    1W        W53893   0.970   6.939   7.248 -0.2117  0.0803  0.0571
    1W        W53894  26.940  20.906   0.402 -0.2980  0.1996  0.0984
    1W        W53895   9.175   4.863   8.237  0.3036  0.0777 -0.0845
    1W        W53896  16.805  21.064   5.632  0.0771 -0.0132  0.2983
    1W        W53897  27.480   3.067   9.411 -0.3679  0.2343  0.0506
    1W        W53898  23.432  28.977   9.289 -0.1611  0.0091 -0.0816
    1W        W53899  11.866  20.717   6.923  0.1041  0.2713 -0.3227
    1W        W53900  11.292  21.074   0.828  0.1401  0.1350  0.1145
    1W        W53901  10.423  13.497   9.106  0.1825  0.0119 -0.2863
    1W        W53902   1.541  19.457   0.026  0.0930  0.1384  0.0560
    1W        W53903   2.147  11.349   0.349  0.1341  0.2799 -0.2207
    1W        W53904   2.730  13.841   0.379 -0.0149  0.2166 -0.0188
    1W        W53905  11.949  12.131   0.056  0.0392 -0.0374  0.1610
    1W        W53906  23.437  21.412   0.667  0.1392  0.1498  0.1216
    1W        W53907  24.804  22.918   8.079  0.0868  0.0051 -0.1208
    1W        W53908   2.057  26.919   9.500  0.0416  0.1369  0.0285
    1W        W53909  16.745  12.754   7.584  0.0040  0.1132  0.0944
    1W        W53910   0.000  14.586   7.302  0.0047  0.2332  0.1344
    1W        W53911  16.596  27.483   2.038 -0.0021 -0.0391 -0.0107
    1W        W53912  29.666  29.027   7.862  0.1329 -0.0413  0.3308
    1W        W53913   2.123   4.113   8.860 -0.1103 -0.1055  0.0495
    1W        W53914   0.159  27.897   2.397  0.1049  0.1725  0.3246
    1W        W53915  27.593  15.039   8.126  0.0194 -0.0653  0.2480
    1W        W53916  18.747  21.991   0.353  0.2421  0.1659 -0.1722
    1W        W53917  23.693   3.220   9.463  0.1864  0.0456 -0.0941
    1W        W53918  25.207  28.810   8.381 -0.1616 -0.0897 -0.1228
    1W        W53919  12.245  26.373   1.969  0.2571  0.1246 -0.1090
    1W        W53920  20.603  21.137   6.744  0.1226  0.1965  0.2000
    1W        W53921  18.191  24.190   7.413 -0.0748  0.2618 -0.0882
    1W        W53922   9.641  17.577   9.380 -0.0883  0.0362 -0.1052
    1W        W53923   8.670  11.815   9.362 -0.3129  0.2450 -0.1981
    1W        W53924  14.933   9.885   1.956 -0.2066 -0.0345  0.2405
    1W        W53925  21.575  16.386   1.165  0.0386  0.1935  0.1877
    1W        W53926  11.585  15.579   8.786 -0.1694  0.3084 -0.0113
    1W        W53927  21.540  14.369   1.778 -0.0081 -0.0056 -0.3403
    1W        W53928   9.172   8.967   9.143  0.4060  0.1288 -0.1257
    1W        W53929   0.514   7.685   9.151 -0.3771  0.1410  0.2168
    1W        W53930  25.437  17.072   2.435  0.1805  0.0453 -0.2646
    1W        W53931   6.323  26.035   6.270  0.4714  0.1243  0.2402
    1W        W53932  28.466  20.073   1.116 -0.0966  0.1529 -0.0977
    1W        W53933   6.500  15.993   6.642 -0.1562 -0.2277  0.0062
    1W        W53934  18.000  20.707   7.624  0.2035  0.2229 -0.1551
    1W        W53935  19.637  26.560   8.729  0.2957 -0.0200 -0.0682
    1W        W53936  28.025   8.916   0.743  0.4333  0.1907 -0.1451
    1W        W53937   4.508  21.849   0.191 -0.1076  0.1242  0.1421
    1W        W53938   0.275  21.263   6.595  0.1488 -0.1177  0.3546
    1W        W53939  18.277   1.488   0.225  0.0805 -0.0177  0.3945
    1W        W53940  29.166   9.692   8.075  0.2480 -0.0747 -0.0947
    1W        W53941  28.790   1.747   3.130  0.0738  0.0615  0.4287
    1W        W53942  14.079  27.958   6.453  0.0045  0.0349  0.0599
    1W        W53943   5.892  14.345   1.002 -0.1094 -0.0212 -0.2405
    1W        W53944  29.375  16.918   0.347  0.1657  0.3908 -0.1656
    1W        W53945   8.708  10.586   0.646  0.0255  0.1192  0.1460
    1W        W53946   0.430   6.332   2.881  0.1387  0.1034 -0.0498
    1W        W53947  26.732   0.904   1.573  0.1114 -0.1959 -0.5309
    1W        W53948  18.965  25.024   7.336  0.1857 -0.1537 -0.1673
    1W        W53949  28.101   2.551   8.863  0.1273 -0.0365 -0.0455
    1W        W53950   8.124   4.288   1.702 -0.1285  0.1626 -0.0577
    1W        W53951   3.104   9.177   2.337  0.0640  0.1782  0.0631
    1W        W53952  16.526   9.002   3.114 -0.1328 -0.0458 -0.2004
    1W        W53953  12.313   9.654   1.532 -0.2149 -0.1399  0.5001
    1W        W53954  23.961  10.233   7.904  0.0469  0.1608 -0.0639
    1W        W53955  18.474  21.469   1.539  0.0596 -0.0364  0.2428
    1W        W53956  22.316  25.514   2.376  0.0381  0.1309  0.2103
    1W        W53957   7.622  10.840   8.849  0.0835  0.0426  0.3192
    1W        W53958   3.262  20.083   9.236  0.1485 -0.0340 -0.0546
    1W        W53959  15.289  26.716   0.658  0.1752 -0.1043 -0.2637
    1W        W53960   3.431   8.465   0.875  0.1507  0.0975 -0.0486
    1W        W53961  20.368   7.247   7.655 -0.2056 -0.0925 -0.1719
    1W        W53962  12.325  20.607   6.808 -0.0396 -0.2949 -0.0689
    1W        W53963  13.603  15.273   1.662  0.1705  0.2995  0.0930
    1W        W53964  10.835  12.162   6.233 -0.0415  0.0964 -0.0480
    1W        W53965  11.535   0.126   0.190  0.0026  0.2350 -0.0126
    1W        W53966  24.304  13.507   2.259  0.1282  0.0798 -0.2481
    1W        W53967  18.526  21.340   7.259 -0.0892  0.1793  0.0429
    1W        W53968  25.104  20.427   6.021  0.1307 -0.2225  0.0675
    1W        W53969  18.152  28.749   3.133  0.0833  0.3073 -0.2832
    1W        W53970  19.696  20.378   6.212  0.1100 -0.0654  0.1474
    1W        W53971   4.611  11.641   0.778 -0.0640 -0.0928  0.2001
    1W        W53972   6.678  16.900   1.903  0.0488 -0.1050  0.1243
    1W        W53973  18.125   3.118   8.146  0.1016  0.1002 -0.1046
    1W        W53974  15.639  15.230   7.741 -0.0452 -0.4241  0.0749
    1W        W53975  10.686  27.851   8.113  0.1549 -0.0739 -0.1783
    1W        W53976   0.098  20.580   2.038 -0.0518 -0.1081 -0.0777
    1W        W53977   7.207  16.241   7.755 -0.0446 -0.1342 -0.1368
    1W        W53978  20.944   0.990   2.898 -0.1414  0.1209  0.0692
    1W        W53979  29.465   9.717   1.989  0.2555 -0.0780  0.0763
    1W        W53980  12.596   1.887   1.609  0.2478 -0.1331 -0.0796
    1W        W53981   0.978  13.934   9.325 -0.0063 -0.1744  0.0939
    1W        W53982   1.025  28.902   6.227 -0.1830 -0.0799 -0.0018
    1W        W53983  28.714  21.478   8.206  0.2687 -0.2034 -0.0840
    1W        W53984  17.975   5.497   9.019 -0.0777 -0.2163  0.1006
    1W        W53985  11.154  23.472   5.861  0.0445 -0.1250  0.0680
    1W        W53986  24.285  27.637   8.831 -0.0332 -0.1082  0.1224
    1W        W53987  17.069   4.831   2.092  0.0077 -0.1725 -0.5190
    1W        W53988   1.575  24.227   2.103 -0.1998 -0.1464 -0.2923
    1W        W53989  28.889   7.486   1.475  0.1755 -0.2437 -0.0969
    1W        W53990  29.358  23.909   2.451 -0.0343 -0.0478 -0.0351
    1W        W53991   3.944  17.421   6.817  0.3326 -0.4289 -0.2190
    1W        W53992   9.454  28.053   0.264  0.0167 -0.0050 -0.1261
    1W        W53993   1.753  29.093   9.472 -0.2465  0.0234  0.0642
    1W        W53994  27.387  26.272   1.606 -0.2733 -0.1552 -0.0107
    1W        W53995   3.849  10.049   6.655  0.0507 -0.1720  0.0558
    1W        W53996  27.555   0.292   8.423 -0.2774 -0.2842 -0.1436
    1W        W53997   5.153  14.153   1.649 -0.1207 -0.2151  0.3565
    1W        W53998  25.784   0.817   6.979  0.1814  0.1835 -0.3422
    1W        W53999   1.438   8.601   6.749  0.0593 -0.5059 -0.2516
    1W        W54000   0.544   8.603   1.351  0.0863 -0.0186 -0.0453
    1W        W54001  14.685   4.881   7.961 -0.0527 -0.0970  0.3972
    1W        W54002  10.023   2.733   7.463  0.1545  0.0683 -0.0569
    1W        W54003  23.191  25.968   9.140  0.0874 -0.1984  0.0611
    1W        W54004   4.459  24.317   7.916  0.2755  0.0511  0.0490
    1W        W54005  22.370  18.598   1.225 -0.2495  0.2116 -0.1242
    1W        W54006  20.518  22.125   1.481  0.0116 -0.5564  0.1123
    1W        W54007   7.262  12.597   9.352  0.1482 -0.2972  0.0155
    1W        W54008   0.377  17.582   0.697  0.2419  0.0461  0.1462
    1W        W54009  27.626  29.640   8.574 -0.3304  0.0086  0.1926
    1W        W54010  17.565  22.577   1.155 -0.0270 -0.0158  0.1888
    1W        W54011   4.033   9.036   8.989 -0.0868  0.1269  0.1424
    1W        W54012   4.719  16.441   1.181  0.0215  0.4074  0.0103
    1W        W54013  26.394   4.061   8.965  0.1378  0.3884 -0.0494
    1W        W54014   5.417  14.593   9.274 -0.1158  0.1260  0.0443
    1W        W54015   2.046  12.338   1.022  0.0770 -0.0626  0.3769
    1W        W54016  26.367   7.079   2.004  0.2347  0.2196 -0.1320
    1W        W54017   9.923  12.962   1.307 -0.0119  0.2620 -0.2956
    1W        W54018  22.385   8.486   7.712  0.0721 -0.0696 -0.2337
    1W        W54019  19.334  22.541   0.650 -0.1828 -0.2620  0.1150
    1W        W54020  28.234  25.826   9.155 -0.1966  0.1628 -0.1067
    1W        W54021  24.236  27.314   0.768 -0.1165 -0.0936 -0.1907
    1W        W54022  14.410  25.160   7.318 -0.1758  0.1974 -0.1346
    1W        W54023   8.361   6.639   2.163 -0.0964 -0.0445 -0.0321
    1W        W54024   6.503   5.643   0.232 -0.1110 -0.2776  0.3244
    1W        W54025  19.527   9.033   1.846  0.3992  0.2276 -0.0835
    1W        W54026  27.318  27.213   2.517 -0.1779  0.1486  0.0499
    1W        W54027   9.277  26.107   8.072 -0.0836 -0.1595  0.0530
    1W        W54028  12.488  13.896   1.360  0.0800  0.1342 -0.2238
    1W        W54029   8.154  28.751   2.144 -0.0893  0.0688  0.0407
    1W        W54030  27.461   7.415   9.498 -0.0567  0.0146  0.0553
    1W        W54031  21.907   7.951   8.281  0.1203  0.0777 -0.1490
    1W        W54032  29.761   3.336   8.972  0.0503 -0.2186 -0.0341
    1W        W54033   0.660  22.950   7.540 -0.0804 -0.2920 -0.1380
    1W        W54034   9.000  24.207   9.282  0.0541  0.1477  0.0617
    1W        W54035  23.828   5.170   8.353  0.0243 -0.1912 -0.0570
    1W        W54036  19.536  12.821   1.395 -0.1364 -0.2247  0.0078
    1W        W54037   1.017   2.243   6.525  0.2587  0.0258  0.3906
    1W        W54038  16.499  14.880   0.830  0.0926  0.0213  0.2052
    1W        W54039   5.530  17.263   0.364  0.0031  0.2293 -0.0656
    1W        W54040  15.153  20.229   7.588  0.0392  0.1017 -0.2219
    1W        W54041  17.541  27.428   8.160 -0.0763  0.0338 -0.0326
    1W        W54042  21.534  25.398   7.023 -0.2892  0.0231  0.0925
    1W        W54043  21.938  18.206   1.777  0.1321 -0.1576  0.1551
    1W        W54044  26.864  14.241   9.204  0.1185 -0.1295  0.1886
    1W        W54045   8.351  11.932   7.100  0.0828 -0.1510  0.0694
    1W        W54046   4.261  22.397   7.894 -0.4124 -0.2031 -0.2389
    1W        W54047   9.611  15.952   1.454 -0.0462  0.4783  0.1736
    1W        W54048   7.357  23.707   7.416  0.2335 -0.0935  0.3142
    1W        W54049   0.551   7.078   2.348 -0.0655  0.2996  0.1219
    1W        W54050  26.821  17.063   0.831 -0.0424 -0.1176  0.0402
    1W        W54051  20.096  28.539   3.308  0.0951  0.2152  0.3015
    1W        W54052   2.243  12.032   6.785  0.0627  0.0563  0.1643
    1W        W54053   8.791  27.686   9.251 -0.0251  0.0047 -0.1593
    1W        W54054   4.619  18.808   2.137 -0.1358 -0.0446  0.0108
    1W        W54055   8.356   4.536   2.519  0.0013  0.0070 -0.2112
    1W        W54056  26.859   4.700   2.242 -0.1190 -0.2921  0.0230
    1W        W54057   3.465  25.201   1.327 -0.1085 -0.1654 -0.1524
    1W        W54058  14.759  21.622   6.762 -0.0325 -0.0405  0.1818
    1W        W54059   2.585  27.513   0.838 -0.0550 -0.1011  0.1226
    1W        W54060  10.002  13.661   8.011 -0.2944 -0.1773  0.1771
    1W        W54061   6.235  16.051   7.132 -0.0679 -0.0976 -0.0253
    1W        W54062   8.367  22.586   9.442  0.0620  0.0711 -0.2581
    1W        W54063  12.468  12.764   9.032  0.0747 -0.4362  0.1027
    1W        W54064  21.268   9.335   0.780  0.0339  0.0434  0.0639
    1W        W54065   0.207   3.335   9.438 -0.2547  0.0686 -0.0475
    1W        W54066  16.950   5.626   2.667  0.2634  0.1156  0.0459
    1W        W54067  21.749  26.490   2.385  0.0528  0.1209  0.0168
    1W        W54068  13.071  17.314   0.216  0.0520 -0.0512 -0.1395
    1W        W54069   7.587  24.356   7.072 -0.0467 -0.2175  0.1480
    1W        W54070  26.276  22.698   1.318 -0.3543  0.0940  0.3509
    1W        W54071   9.193   6.010   3.075  0.3838 -0.1864  0.0813
    1W        W54072  22.194  22.566   8.729  0.0012  0.1801 -0.2401
    1W        W54073   9.973   0.185   7.456  0.1853  0.0363 -0.0148
    1W        W54074   4.378  21.046   7.703  0.1622  0.0492 -0.1734
    1W        W54075  25.374  19.050   2.108  0.0974  0.0949 -0.0082
    1W        W54076  18.896   7.221   9.141 -0.3462  0.0339  0.0034
    1W        W54077  25.827  10.309   9.302  0.2135  0.1092  0.1439
    1W        W54078   0.224  18.162   6.478  0.1711 -0.3931  0.0515
    1W        W54079   3.547   7.772   9.289 -0.0069  0.0255  0.0851
    1W        W54080   9.623  15.064   2.882  0.1053 -0.0129  0.0251
    1W        W54081  12.956  26.229   8.399  0.0465 -0.1391  0.1218
    1W        W54082  12.625  22.056   0.871  0.0145 -0.1863 -0.0554
    1W        W54083   9.899   6.375   0.439 -0.0097 -0.0257 -0.0245
    1W        W54084  13.651  29.845   2.741  0.0848 -0.1297  0.3053
    1W        W54085  16.274  22.724   8.475 -0.0733 -0.0475 -0.1582
    1W        W54086  19.087  14.101   0.493 -0.1360  0.0360  0.0250
    1W        W54087  28.192  27.444   0.481 -0.0303 -0.1281 -0.0039
    1W        W54088  13.849   1.170   0.660 -0.1654 -0.0642 -0.1028
    1W        W54089  15.450   1.113   3.650  0.0378 -0.3929 -0.0959
    1W        W54090   8.099  17.121   7.662  0.0517  0.0416  0.0356
    1W        W54091  11.684  24.940   0.503 -0.2535 -0.1139 -0.1604
    1W        W54092  28.058  18.139   6.988  0.3875  0.0255  0.2015
    1W        W54093  10.806  16.368   0.895 -0.3741 -0.1684 -0.1824
    1W        W54094  12.275  10.036   9.085  0.0746  0.2771 -0.0598
    1W        W54095   6.504   4.637   7.170 -0.2067  0.1769  0.0895
    1W        W54096   6.898   4.909   2.004 -0.2135 -0.2337 -0.2164
    1W        W54097   5.226   1.136   7.675  0.0227 -0.2576 -0.2523
    1W        W54098  19.723   8.594   9.518  0.0196  0.0495 -0.0153
    1W        W54099  16.284   4.211   2.933  0.0606 -0.1548  0.4448
    1W        W54100   7.380  16.972   8.527 -0.0388 -0.1680  0.2132
    1W        W54101  29.611  18.827   2.014  0.0209 -0.0259 -0.0336
    1W        W54102  15.385  10.769   1.163 -0.1120 -0.1246  0.0204
    1W        W54103   7.400  16.040   6.725 -0.0168 -0.4670  0.2511
    1W        W54104  11.313   2.231   0.168  0.0106 -0.0182  0.0489
    1W        W54105  13.863  10.417   0.375  0.0677 -0.0006  0.0395
    1W        W54106   9.843   8.437   2.683 -0.0086 -0.0731  0.0009
    1W        W54107   0.209  24.323   8.111 -0.0484  0.0256 -0.1282
    1W        W54108  14.483   2.385   0.389  0.1889  0.2858 -0.0181
    1W        W54109  29.359  13.709   1.422  0.0189 -0.0503  0.1104
    1W        W54110  13.461   8.385   2.092 -0.1577  0.3036 -0.1345
    1W        W54111  13.885  29.254   7.375 -0.0290  0.1538 -0.2381
    1W        W54112  26.646   5.196   2.337  0.1128 -0.0434  0.0429
    1W        W54113  25.431  14.340   0.901  0.1399 -0.2946  0.1022
    1W        W54114   5.719   5.392   0.226  0.3074  0.2672 -0.0965
    1W        W54115   0.896   8.925   9.306 -0.0687  0.0207 -0.1252
    1W        W54116  25.263  29.380   7.023 -0.0820  0.0038  0.3041
    1W        W54117   0.178  18.764   1.677 -0.0921  0.0091  0.3971
    1W        W54118  23.490   0.656   2.225 -0.0535  0.0499  0.0012
    1W        W54119  13.138   5.269   1.214 -0.0319  0.0078  0.0531
    1W        W54120   2.397   0.610   9.447  0.3129  0.2894 -0.1306
    1W        W54121   7.753   4.615   8.426  0.0753  0.0976 -0.0198
    1W        W54122  11.491  12.310   0.291 -0.0235  0.2048 -0.1956
    1W        W54123  22.883  23.690   3.132  0.0904  0.0069  0.3772
    1W        W54124  18.696   1.669   8.245  0.1582  0.0965  0.2235
    1W        W54125   1.425  28.193   6.570  0.5241  0.0237  0.1283
    1W        W54126  13.564  22.770   4.560 -0.0275  0.0303  0.0534
    1W        W54127  13.197  15.579   6.916 -0.1595 -0.0018  0.1588
    1W        W54128  23.352  29.061   8.278  0.0277  0.0275 -0.2407
    1W        W54129  20.557  28.810   1.806  0.0394  0.2666 -0.0145
    1W        W54130   0.203   7.849   2.447  0.1648  0.0619 -0.3173
    1W        W54131  23.280  20.225   1.034  0.0045 -0.2573 -0.1513
    1W        W54132   7.002  22.196   6.743  0.2463 -0.3600 -0.4907
    1W        W54133   3.592   1.482   8.297 -0.1366  0.0127  0.5831
    1W        W54134   1.336  23.920   0.679 -0.0558 -0.0099 -0.2747
    1W        W54135  15.448  10.087   2.489  0.1967  0.1190 -0.2908
    1W        W54136   0.705  17.260   3.032 -0.0458  0.2385  0.1433
    1W        W54137   2.653  19.538   1.473  0.1013  0.0365  0.3796
    1W        W54138  15.334   1.392   0.175  0.0243 -0.0842  0.0139
    1W        W54139  12.614  29.213   0.484 -0.2415  0.2642  0.0058
    1W        W54140   8.548  23.129   9.445  0.2455 -0.0559 -0.1540
    1W        W54141   0.475  13.203   8.833  0.3731 -0.0074 -0.1080
    1W        W54142   9.558  20.935   6.777  0.2042  0.2451 -0.0974
    1W        W54143  18.971  16.163   6.625  0.1067 -0.1104  0.0798
    1W        W54144  15.690   1.541   3.681 -0.2272 -0.0767  0.2258
    1W        W54145  11.804  22.077   8.316 -0.1140 -0.3636  0.1755
    1W        W54146  14.537  17.658   8.365  0.0487 -0.1504  0.0117
    1W        W54147  20.273  20.924   7.079 -0.0298  0.0929  0.1280
    1W        W54148  15.395  12.464   8.629  0.2530 -0.3136  0.0484
    1W        W54149  23.702  20.034   1.285 -0.0154  0.2156  0.0509
    1W        W54150   1.890  26.699   8.900  0.2990  0.1379 -0.0121
    1W        W54151  21.298  28.582   7.947 -0.0788  0.0203  0.1833
    1W        W54152  16.253   3.059   3.657  0.1449  0.0030 -0.1647
    1W        W54153  18.653  12.798   7.439 -0.0859  0.1492 -0.0425
    1W        W54154  14.960  21.491   7.587 -0.1379 -0.2800  0.0239
    1W        W54155  13.844  18.528   6.241  0.2537 -0.1071 -0.2667
    1W        W54156   2.669   8.741   7.366  0.1166 -0.0691  0.0381
    1W        W54157   9.515   1.265   7.356  0.0270  0.0142 -0.1618
    1W        W54158  12.860  20.023   8.382  0.1803 -0.0947  0.0626
    1W        W54159   2.124   0.033   6.134  0.0498  0.0071  0.0665
    1W        W54160   3.341  14.843   2.089  0.1639  0.3201 -0.0440
    1W        W54161  12.103  16.918   5.859  0.3085  0.1151  0.0571
    1W        W54162   0.689   8.205   0.214 -0.2196  0.1141  0.1691
    1W        W54163  26.837  23.986   3.427 -0.2725  0.0312 -0.2752
    1W        W54164   4.736   6.756   8.721 -0.4539 -0.2227 -0.0355
    1W        W54165   2.942   6.144   7.477  0.2631 -0.2911 -0.2988
    1W        W54166   8.829  10.123   7.235  0.1072 -0.2591 -0.1297
    1W        W54167  12.443  12.212   0.278  0.2815  0.0409  0.3428
    1W        W54168  22.615  20.926   0.522 -0.0585  0.0613  0.2527
    1W        W54169  14.914  22.580   6.038  0.0015 -0.0752 -0.0697
    1W        W54170  17.509  11.169   9.221  0.0283 -0.0362  0.0806
    1W        W54171  11.718  18.334   6.292 -0.0018 -0.1454  0.1258
    1W        W54172   7.880  27.129   1.665 -0.1750  0.1519 -0.0599
    1W        W54173  14.960  23.532   9.000 -0.0514 -0.0658  0.3116
    1W        W54174  24.377   6.814   2.989 -0.0318 -0.0935  0.1575
    1W        W54175   8.512   7.265   0.878 -0.0774 -0.0331 -0.0002
    1W        W54176   5.056   6.081   9.422 -0.3988  0.3314  0.1859
    1W        W54177  20.199   3.685   8.918 -0.2999 -0.0427  0.3282
    1W        W54178   2.111   2.714   8.087 -0.1390  0.0419 -0.0667
    1W        W54179  19.547  25.188   0.817  0.1732 -0.2231 -0.0340
    1W        W54180  22.255  24.306   1.187  0.1810  0.0260  0.1515
    1W        W54181  24.716   5.377   1.567 -0.1279  0.0834  0.3205
    1W        W54182   0.039  12.853   1.743 -0.0922  0.0705  0.3458
    1W        W54183   7.923  11.119   1.501  0.0048 -0.0491  0.0509
    1W        W54184   3.203  20.693   7.135 -0.2206 -0.1121  0.0666
    1W        W54185  23.030  13.262   2.022 -0.0446 -0.0063 -0.0371
    1W        W54186  15.461  15.188   6.755 -0.1582 -0.0612  0.0321
    1W        W54187   5.539   1.740   1.942 -0.1405 -0.0700  0.1063
    1W        W54188  23.323   9.404   2.656 -0.0230 -0.1052  0.0787
    1W        W54189  20.225  10.516   1.966  0.1566  0.1603  0.1499
    1W        W54190   5.143  27.243   2.378  0.1626 -0.1022 -0.0837
    1W        W54191  22.483   4.840   0.920 -0.2164 -0.4040 -0.1785
    1W        W54192   3.009   8.399   2.668 -0.1135  0.0681 -0.2094
    1W        W54193  18.746   4.059   7.373 -0.0883  0.1260 -0.1016
    1W        W54194  11.529  18.305   1.786  0.1207  0.0720  0.0548
    1W        W54195   7.311  13.295   6.746  0.0186 -0.1697  0.0246
    1W        W54196  26.637  24.663   2.537 -0.1021  0.2051 -0.3116
    1W        W54197  12.638  10.722   9.427 -0.2312  0.2917  0.1272
    1W        W54198  28.172  28.161   6.286  0.2126 -0.3173 -0.0967
    1W        W54199  25.943  28.576   8.950  0.1106 -0.0142 -0.1344
    1W        W54200   5.811  21.017   1.298 -0.0200  0.4130 -0.1497
    1W        W54201  26.628   2.040   0.008  0.4307  0.1814  0.0476
    1W        W54202  29.464   0.274   9.254  0.2657 -0.4000  0.1642
    1W        W54203  13.817  18.906   9.248  0.2738 -0.0498  0.2671
    1W        W54204  24.406   8.724   0.924  0.0130  0.0029  0.0684
    1W        W54205   8.293   2.674   3.074  0.1395 -0.0801 -0.1694
    1W        W54206  19.689  12.609   8.963  0.1151  0.0035  0.4009
    1W        W54207  27.656  12.851   8.635  0.2827 -0.2245 -0.0935
    1W        W54208  26.860  18.464   0.989 -0.1577  0.1515 -0.0382
    1W        W54209  29.751   7.179   7.960  0.0167  0.0018  0.1391
    1W        W54210  16.398   1.810   0.059 -0.2005 -0.2221  0.0145
    1W        W54211   1.318  28.681   8.896 -0.2495  0.1983  0.0529
    1W        W54212  26.785  17.087   7.408  0.0422 -0.1006  0.0167
    1W        W54213   0.414   3.380   2.138  0.1630  0.1545 -0.1380
    1W        W54214  27.828  24.669   8.788 -0.1972 -0.2630  0.2235
    1W        W54215   2.979  14.294   0.141  0.2277  0.2143 -0.3315
    1W        W54216   1.033  24.177   0.158  0.1281 -0.3516 -0.0397
    1W        W54217  22.619  20.051   0.043 -0.3177  0.1875 -0.1300
    1W        W54218  14.052   0.673   0.692 -0.3359 -0.0235 -0.1149
    1W        W54219  22.094  16.500   1.228 -0.0728  0.1007 -0.2369
    1W        W54220   4.505  13.617   7.624 -0.1055 -0.3699 -0.1588
    1W        W54221  12.847  18.870   9.439 -0.1576  0.0235  0.0836
    1W        W54222  13.732  21.177   8.352  0.0978  0.0076 -0.1672
    1W        W54223   1.310  26.907   5.297 -0.0569  0.0479 -0.0835
    1W        W54224   9.647  17.767   2.089 -0.2061 -0.1107  0.0322
    1W        W54225  29.592  22.089   7.182  0.1378  0.3560  0.0019
    1W        W54226  16.034   1.126   0.582  0.0417  0.2879 -0.0070
    1W        W54227  23.613  15.078   2.079  0.0526  0.1304  0.1052
    1W        W54228  27.086   6.126   1.410 -0.1923  0.0434 -0.3785
    1W        W54229  22.273   0.935   8.552  0.4306  0.1091  0.1480
    1W        W54230  14.038   4.018   0.559  0.0225 -0.3432 -0.1623
    1W        W54231  27.163  11.708   7.014  0.0482  0.2480 -0.1346
    1W        W54232  21.224   5.923   4.300 -0.0407  0.1985  0.2503
    1W        W54233  23.481  17.210   0.025  0.0877 -0.0527 -0.2704
    1W        W54234   8.363  13.124   7.958 -0.1044 -0.0750  0.0841
    1W        W54235   9.134  14.684   1.144  0.0040 -0.1630  0.0040
    1W        W54236  14.336  24.972   0.442  0.1543  0.0157 -0.0791
    1W        W54237  25.198  24.691   1.606  0.2432 -0.0272  0.0150
    1W        W54238  29.310  15.546   9.122 -0.1309 -0.1824 -0.2737
    1W        W54239  12.406  15.797   8.495  0.1570  0.0050  0.1287
    1W        W54240   5.048  22.932   7.556  0.1655 -0.1197 -0.0772
    1W        W54241  20.173   0.978   8.735 -0.0779 -0.0288  0.0012
    1W        W54242  11.826  28.382   8.946  0.0540 -0.0091  0.1804
    1W        W54243   1.632  24.625   7.696 -0.0608 -0.1123  0.1411
    1W        W54244  22.863  20.070   6.953  0.1415  0.1767 -0.0395
    1W        W54245   6.489  14.592   0.668  0.0297 -0.0905 -0.0718
    1W        W54246   3.616   1.776   6.955 -0.1694  0.1961  0.3285
    1W        W54247  23.483  16.042   7.684  0.1592 -0.2197 -0.1745
    1W        W54248   5.981  24.175   8.736 -0.3579  0.2937 -0.1803
    1W        W54249  24.316  23.804   8.835  0.1967  0.0510 -0.1599
    1W        W54250  24.750  23.926   2.442 -0.1594 -0.0846  0.1707
    1W        W54251  29.219  21.940   1.311 -0.0986 -0.1680  0.0824
    1W        W54252   1.246  20.250   0.009 -0.1886  0.0064  0.1208
    1W        W54253  22.853   7.275   2.484 -0.1627  0.4781 -0.0057
    1W        W54254   7.925  15.013   1.826 -0.1164 -0.3676 -0.1043
    1W        W54255  28.329   0.862   1.142  0.2152 -0.0387  0.1139
    1W        W54256  27.446   1.464   0.142  0.1281 -0.1700  0.0954
    1W        W54257   6.804   2.826   7.505  0.0486 -0.0008  0.0102
    1W        W54258  26.252  23.418   9.157 -0.2357 -0.2560  0.2892
    1W        W54259   5.572  13.158   6.190 -0.3442  0.0968  0.1044
    1W        W54260   4.614  23.511   9.091  0.0426  0.4287  0.2568
    1W        W54261   2.076  21.831   8.622  0.0805  0.1094  0.2305
    1W        W54262  12.726  12.623   8.037 -0.4047 -0.1329 -0.3214
    1W        W54263   4.534  27.941   5.726  0.2232  0.2588  0.3113
    1W        W54264   2.399   6.503   7.824 -0.0172 -0.1055  0.1491
    1W        W54265  22.003  27.879   6.617  0.0657  0.0518  0.1810
    1W        W54266  11.085   5.260   3.359  0.0434 -0.0045  0.1588
    1W        W54267   1.710  19.643   1.673  0.1913  0.1001  0.1382
    1W        W54268  19.097   4.723   9.037 -0.0280 -0.5331 -0.0825
    1W        W54269   8.924  20.041   6.578  0.2973  0.0031  0.1884
    1W        W54270  20.169   3.489   3.125 -0.0251  0.2286 -0.0437
    1W        W54271   3.850  19.012   2.377  0.2288 -0.0181 -0.5169
    1W        W54272  22.242   3.851   9.351 -0.0590 -0.0277 -0.2937
    1W        W54273   0.829  11.376   8.820 -0.0183  0.1337  0.0211
    1W        W54274   9.306  28.298   8.430 -0.0238 -0.3695 -0.3039
    1W        W54275  24.337  26.835   0.862 -0.1104 -0.1131  0.1552
    1W        W54276  11.084   7.944   2.177 -0.1066 -0.0513  0.4422
    1W        W54277  24.401  13.789   1.872  0.3202  0.1950  0.1112
    1W        W54278   8.229  11.475   6.810  0.0488 -0.2730 -0.0423
    1W        W54279   3.126  25.590   1.120 -0.0591 -0.1305  0.2918
    1W        W54280  11.318  18.378   2.308 -0.1026  0.0554  0.0668
    1W        W54281  12.333   9.264   1.741 -0.2819 -0.0048  0.2991
    1W        W54282  17.185  15.270   8.757  0.3664 -0.0754 -0.0469
    1W        W54283   9.286  29.432   7.532  0.1203  0.2837  0.2390
    1W        W54284  17.345  11.497   8.780  0.1407  0.3301 -0.0703
    1W        W54285   2.997   9.927   7.209 -0.1408 -0.0535 -0.1750
    1W        W54286   0.195   9.748   1.990 -0.0593 -0.1399  0.1436
    1W        W54287   9.612   6.253   9.327 -0.0829  0.2077 -0.0234
    1W        W54288  21.908  14.387   2.134  0.0213  0.0045  0.1450
    1W        W54289  24.064  28.592   1.734 -0.0393 -0.0343 -0.1197
    1W        W54290  10.979  21.819   5.600  0.1267 -0.1865  0.3080
    1W        W54291   4.647  14.048   6.955 -0.0933  0.2326  0.1768
    1W        W54292  18.508  19.330   7.158  0.2407 -0.1562  0.2841
    1W        W54293  27.364  25.123   7.410 -0.1049 -0.0035  0.2504
    1W        W54294  28.787  13.342   8.078 -0.2271  0.0278 -0.2088
    1W        W54295  28.689  11.408   6.460  0.2232 -0.0496 -0.2575
    1W        W54296  23.027  13.148   2.849 -0.2306  0.0826  0.1438
    1W        W54297  24.332  21.541   8.361  0.0621  0.1191  0.1009
    1W        W54298   4.287  15.476   2.672 -0.1645 -0.3195  0.1596
    1W        W54299  17.617  15.670   8.034 -0.2361  0.1853 -0.2215
    1W        W54300  27.772  15.770   1.013  0.0989 -0.0124 -0.6170
    1W        W54301  21.180   5.758   8.190 -0.3074 -0.2287 -0.1203
    1W        W54302  28.964   1.252   1.855 -0.0565 -0.0160 -0.0437
    1W        W54303   9.418   2.050   6.845  0.0428  0.0429 -0.1361
    1W        W54304  25.535  12.686   7.997 -0.0524 -0.0235  0.0161
    1W        W54305  21.874  12.105   8.816 -0.2133 -0.2373  0.1722
    1W        W54306  18.216  29.385   0.417 -0.2395  0.4102 -0.1982
    1W        W54307  17.730  23.619   6.471  0.0894  0.1329  0.2036
    1W        W54308   9.385  23.206   2.259 -0.4566  0.1064 -0.4902
    1W        W54309  29.276  24.340   7.093  0.1832 -0.1879  0.0814
    1W        W54310  11.514  25.575   6.958 -0.0583 -0.1978 -0.1415
    1W        W54311  12.762  18.180   7.966  0.2222  0.0680  0.2390
    1W        W54312  24.577  13.892   8.831 -0.2780  0.0736 -0.0588
    1W        W54313  16.008   8.004   8.472 -0.0842  0.1150  0.0691
    1W        W54314  12.469   7.229   9.319 -0.2125 -0.4623  0.1835
    1W        W54315  18.477  10.777   9.282 -0.2130 -0.0306 -0.2526
    1W        W54316   4.520  22.458   8.309 -0.2214  0.1814 -0.0636
    1W        W54317  10.458  17.980   0.807  0.2125 -0.1615  0.0844
    1W        W54318   7.773   4.703   0.330 -0.1842 -0.3125 -0.2108
    1W        W54319  16.688  15.726   1.305  0.0129 -0.1682  0.0613
    1W        W54320   9.906   2.373   9.225  0.0841  0.0280 -0.0387
    1W        W54321  27.733  12.574   9.083  0.0238  0.2106  0.1437
    1W        W54322  14.862   9.384   2.812  0.1246 -0.0412  0.1598
    1W        W54323  17.255  26.235   9.496  0.2954 -0.0190 -0.1707
    1W        W54324  13.876   8.741   0.465 -0.1665 -0.0097 -0.0607
    1W        W54325  23.182  21.246   2.092 -0.1892 -0.3854  0.3289
    1W        W54326   9.408  23.880   8.624  0.1004 -0.1044 -0.0584
    1W        W54327   5.122  18.080   7.644  0.0266 -0.0310 -0.2515
    1W        W54328  16.271  19.196   6.062  0.0369 -0.2755  0.2158
    1W        W54329  25.681  26.146   0.083  0.1912  0.1919 -0.0459
    1W        W54330  13.119   1.678   2.961  0.3004 -0.2914  0.0232
    1W        W54331  27.618  14.860   8.563 -0.1499  0.1542  0.1620
    1W        W54332   5.301   6.823   8.704  0.4202  0.0278  0.0275
    1W        W54333  21.634  29.033   7.931  0.0288  0.0667 -0.1562
    1W        W54334  25.043  17.291   2.227 -0.0500 -0.3218  0.1236
    1W        W54335   2.780  20.235   7.758 -0.2139  0.1652  0.3987
    1W        W54336   5.253  23.220   6.499  0.1216  0.1309 -0.0005
    1W        W54337  24.764  25.437   8.172 -0.0617 -0.2446  0.2962
    1W        W54338   1.492  26.574   0.457 -0.3063  0.1054 -0.1794
    1W        W54339   9.488   8.424   1.848  0.1095  0.0771  0.4018
    1W        W54340   5.450  28.144   7.474  0.0262  0.2496  0.0610
    1W        W54341   6.139  27.357   2.511 -0.0444 -0.2758  0.1893
    1W        W54342  23.590   8.781   1.364 -0.5001 -0.3332  0.0540
    1W        W54343   0.220  23.535   0.392 -0.0761  0.1185  0.0185
    1W        W54344   6.461  25.192   0.252 -0.3019 -0.1155 -0.2473
    1W        W54345   8.328  13.484   9.478  0.1191  0.4252  0.0875
    1W        W54346   8.431  16.555   8.832  0.1729 -0.1871 -0.1040
    1W        W54347  12.060  27.372   0.662  0.0790  0.0423  0.1343
    1W        W54348   0.130   4.452   2.302 -0.2708 -0.3513  0.0380
    1W        W54349  10.677   2.795   9.212 -0.5361  0.0534 -0.0509
    1W        W54350  14.028  27.569   2.425  0.1182  0.1420 -0.1775
    1W        W54351  11.040  15.383   8.648 -0.0651 -0.0802  0.2312
    1W        W54352  17.442   2.501   8.467  0.0207 -0.2163 -0.0576
    1W        W54353   1.730  17.047   7.071 -0.2332 -0.1188  0.4231
    1W        W54354  12.640  16.260   5.749  0.2622 -0.0955  0.1872
    1W        W54355  21.185  19.846   6.857  0.1626 -0.0318  0.2099
    1W        W54356  26.597  22.288   8.993 -0.0635  0.0191 -0.0675
    1W        W54357  26.722  25.688   1.348  0.0633 -0.1352  0.0604
    1W        W54358  22.828  20.952   1.137 -0.1059  0.2291  0.0998
    1W        W54359   5.067  20.524   5.745 -0.1527 -0.3895  0.5720
    1W        W54360  17.820  16.137   9.173 -0.1044 -0.1665 -0.0931
    1W        W54361   2.548  17.633   0.852 -0.1488 -0.2461 -0.2101
    1W        W54362   6.305  10.047   6.661 -0.0463  0.2126  0.2807
    1W        W54363  29.240  15.683   0.564 -0.2793  0.2036 -0.0163
    1W        W54364  29.431   2.969   8.772  0.2797 -0.1258 -0.0990
    1W        W54365   1.769   7.896   1.443 -0.1241 -0.2796 -0.1183
    1W        W54366  11.495  11.932   6.880  0.1403  0.0501 -0.2706
    1W        W54367  11.134  20.588   1.653  0.0512 -0.2883  0.1399
    1W        W54368   0.697  18.324   8.137  0.1637 -0.1564 -0.2700
    1W        W54369  26.150   0.691   0.501  0.0446  0.0814 -0.1321
    1W        W54370   1.175  16.837   7.599 -0.0495  0.0503  0.1653
    1W        W54371   0.276  27.728   0.112 -0.1226  0.2186 -0.1414
    1W        W54372  10.354  14.312   6.347 -0.0101  0.0623  0.1517
    1W        W54373  29.811  27.049   7.235  0.0589  0.3640  0.2307
    1W        W54374  20.479  24.207   0.677 -0.1293 -0.2906  0.3055
    1W        W54375   7.372   0.839   8.865 -0.0169  0.1094  0.2031
    1W        W54376  28.421   9.713   9.261  0.1017 -0.4001 -0.1107
    1W        W54377   3.406  26.320   8.914 -0.2236  0.0149 -0.0667
    1W        W54378   1.458  10.773   0.895  0.1962 -0.0684 -0.3512
    1W        W54379  17.554   4.245   8.840 -0.1291 -0.1359 -0.0255
    1W        W54380  28.320  11.860   9.400 -0.1989 -0.2821  0.2864
    1W        W54381   8.505  22.064   6.727 -0.0763  0.1684 -0.0588
    1W        W54382   4.523  10.679   2.985 -0.3573  0.0382  0.2369
    1W        W54383  18.470  11.639   8.032  0.0126  0.4462  0.1513
    1W        W54384  28.946  18.585   3.195  0.1729  0.2119  0.0722
    1W        W54385  29.814  14.641   0.751  0.2129 -0.2198 -0.0175
    1W        W54386   8.220   2.198   2.901 -0.1207 -0.0852 -0.1088
    1W        W54387  16.686  20.236   6.061 -0.0130  0.2379 -0.0307
    1W        W54388  19.894   9.551   9.125 -0.0759  0.1351  0.2143
    1W        W54389   0.509  27.930   0.992  0.1464 -0.2033 -0.0390
    1W        W54390  20.793   9.006   2.471 -0.0792 -0.2166 -0.0204
    1W        W54391  23.186  12.582   7.855  0.2557 -0.1967  0.0018
    1W        W54392   1.520   3.076   9.302  0.2451  0.3182  0.1452
    1W        W54393   9.625  11.580   0.191  0.1426 -0.0437 -0.1950
    1W        W54394  22.866   4.929   1.335 -0.3234  0.1667 -0.1450
    1W        W54395  18.544  18.525   6.134  0.0220  0.2682 -0.3343
    1W        W54396  15.338  15.064   9.042 -0.2476  0.4552 -0.1307
    1W        W54397  25.462   1.906   9.504 -0.1210  0.0229  0.0524
    1W        W54398  27.570   1.209   6.348 -0.1775 -0.2817 -0.2604
    1W        W54399   0.183  14.732   9.517 -0.0481 -0.2360  0.1134
    1W        W54400   7.474   5.773   7.055 -0.1204  0.1169  0.1431
    1W        W54401   8.127  19.802   1.653 -0.0356 -0.0415  0.2708
    1W        W54402   4.076  12.851   1.541 -0.0023 -0.3180 -0.0655
    1W        W54403  16.642   7.335   2.054  0.1068  0.2518  0.1551
    1W        W54404   9.470  14.169   7.036 -0.0840 -0.2746 -0.4059
    1W        W54405  17.249   3.495   2.634 -0.0051 -0.0133  0.0532
    1W        W54406  25.670  10.853   1.361 -0.4328 -0.0629  0.2115
    1W        W54407  12.414   5.456   8.162 -0.1497  0.2707 -0.2693
    1W        W54408   5.131  22.803   8.052 -0.1832  0.0153  0.1203
    1W        W54409  24.768  21.267   7.195 -0.1109 -0.4494  0.0952
    1W        W54410   3.145   7.037   0.990 -0.1557  0.0780  0.1868
    1W        W54411  23.636  21.682   8.885 -0.2196 -0.0349 -0.0174
    1W        W54412  23.600  18.320   6.969  0.0510  0.2002  0.1070
    1W        W54413  13.101  11.112   0.939 -0.1123  0.0292  0.1336
    1W        W54414  16.006  23.915   7.488 -0.0532  0.4071 -0.0676
    1W        W54415  11.246   6.227   3.693  0.1918  0.0407 -0.2405
    1W        W54416  26.379   4.510   9.469  0.1394  0.2692 -0.3475
    1W        W54417  18.608  11.758   2.739 -0.0904  0.1088 -0.0481
    1W        W54418  19.093  27.944   0.774  0.2412  0.1096 -0.2985
    1W        W54419  28.591  13.162   0.148 -0.3635  0.0503  0.1374
    1W        W54420  20.555  18.913   7.708 -0.0350 -0.0505 -0.0551
    1W        W54421  23.120  23.174   8.089  0.0126  0.2890 -0.0738
    1W        W54422  24.026   0.557   7.730  0.0851 -0.0068  0.1471
    1W        W54423  26.200   8.279   0.617  0.3782 -0.0992  0.1228
    1W        W54424   8.265   8.769   0.236  0.2504 -0.0307 -0.0455
    1W        W54425   3.430  10.220   2.216 -0.0857  0.1047  0.0809
    1W        W54426  11.786   6.732   2.411  0.2524 -0.0029  0.3151
    1W        W54427  27.396   6.484   2.141  0.2557  0.0783 -0.2365
    1W        W54428  27.653  12.302   0.180  0.0300 -0.2930 -0.2345
    1W        W54429  19.469  21.483   7.531 -0.1193 -0.0817 -0.1675
    1W        W54430   5.832   3.102   1.003  0.2538 -0.1505  0.2759
    1W        W54431  12.442  16.342   0.774 -0.2404  0.1066 -0.0147
    1W        W54432  11.943  19.306   0.609 -0.0273 -0.0181  0.2663
    1W        W54433  27.735   5.226   6.979  0.1615  0.0191 -0.0028
    1W        W54434  11.208   2.440   1.877 -0.2946 -0.4726  0.1395
    1W        W54435  12.625   4.653   0.063  0.1303 -0.0580 -0.0784
    1W        W54436   1.368  12.828   0.009 -0.0336  0.0489  0.3553
    1W        W54437   8.191   6.502   0.316 -0.2003 -0.1391 -0.0674
    1W        W54438  24.806   4.262   1.607 -0.2333  0.2417  0.1980
    1W        W54439   7.608  22.149   2.812 -0.0123 -0.0252 -0.0343
    1W        W54440  23.802  17.952   2.055  0.0589 -0.2742  0.2357
    1W        W54441   2.845   8.680   3.040  0.1529 -0.1906 -0.3018
    1W        W54442  13.757  13.842   7.681 -0.2520  0.0148 -0.1901
    1W        W54443  21.926  29.628   2.639 -0.0810  0.0787  0.0865
    1W        W54444   3.378  10.704   7.916 -0.0065  0.2033  0.0349
    1W        W54445  19.576  16.259   0.496  0.0371  0.0274  0.3011
    1W        W54446  20.305  11.481   7.557  0.0572 -0.0535  0.1516
    1W        W54447   3.257  26.113   1.880  0.0719 -0.2988  0.0726
    1W        W54448  16.790  24.652   5.872 -0.3939 -0.1351 -0.2687
    1W        W54449  23.100   2.319   8.059 -0.4350 -0.0631 -0.1332
    1W        W54450  22.312  17.452   1.628 -0.1007  0.0001  0.1363
    1W        W54451   2.599  16.575   7.786  0.1122  0.2874 -0.2171
    1W        W54452   4.353  13.890   8.928  0.0362  0.1901 -0.0602
    1W        W54453   5.802  13.951   7.286  0.0370 -0.1088  0.3940
    1W        W54454  14.006  21.801   6.412  0.0394 -0.1152  0.2148
    1W        W54455  18.384  19.457   1.271  0.2209  0.2087 -0.2164
    1W        W54456   8.961   5.383   2.184 -0.1708  0.0054 -0.4173
    1W        W54457  10.286  29.821   0.688  0.0555 -0.0950 -0.3829
    1W        W54458   8.126  19.623   6.435 -0.2370  0.0709 -0.0751
    1W        W54459  26.625  12.772   2.521 -0.0297  0.0613  0.2155
    1W        W54460  21.598  10.680   2.246  0.1420  0.0393 -0.1214
    1W        W54461  19.004  19.402   7.955 -0.2487 -0.0287  0.2801
    1W        W54462  18.683  28.979   2.287 -0.0743  0.0542  0.0415
    1W        W54463   4.622   0.572   2.404 -0.1175  0.1142  0.2243
    1W        W54464   4.197   8.381   7.216  0.3016 -0.0343  0.1693
    1W        W54465   1.214  23.289   2.618 -0.1283  0.0507 -0.1179
    1W        W54466  25.388  16.606   9.284 -0.1510  0.2557 -0.1158
    1W        W54467   7.540  17.806   6.345  0.0817  0.0852 -0.1072
    1W        W54468  20.676  11.017   2.413 -0.0568 -0.1381  0.3037
    1W        W54469   9.877  26.909   7.331  0.0070 -0.4255  0.1894
    1W        W54470   3.889  16.927   2.708 -0.1543 -0.0904  0.3180
    1W        W54471   9.972  14.884   6.938 -0.0013 -0.3140 -0.0453
    1W        W54472  25.949  25.273   7.420  0.2571 -0.1379  0.0190
    1W        W54473  21.776   3.309   3.040  0.3735 -0.2890  0.1287
    1W        W54474   9.702   1.321   0.885 -0.3482  0.2552  0.2463
    1W        W54475  27.477  19.367   8.422  0.0205 -0.1252 -0.0067
    1W        W54476  25.274  29.442   0.806 -0.1944 -0.1323  0.2136
    1W        W54477   4.774   9.023   7.569  0.3084  0.0880  0.1564
    1W        W54478  15.789  15.153   8.225 -0.2376  0.0239 -0.0452
    1W        W54479  14.657  26.427   8.937 -0.0100  0.0265 -0.0827
    1W        W54480   1.584   6.432   8.324  0.0036  0.1956  0.1080
    1W        W54481  13.246   8.553   0.984 -0.0312 -0.0989 -0.1785
    1W        W54482  11.163  22.983   7.597  0.2305 -0.2850  0.1530
    1W        W54483  29.729   2.898   7.916  0.3266  0.3214 -0.4269
    1W        W54484  11.259   0.942   1.014  0.0067  0.2574 -0.0018
    1W        W54485   5.938  26.852   6.207 -0.2947 -0.1663  0.0666
    1W        W54486   3.745   1.173   2.252 -0.1459  0.0488  0.1310
    1W        W54487  16.089  11.545   1.477 -0.0657 -0.0502 -0.1602
    1W        W54488  15.574   0.430   3.766  0.0643 -0.0961  0.0986
    1W        W54489  22.234  22.222   2.251  0.0356 -0.1625 -0.0470
    1W        W54490  16.382  24.190   0.869 -0.0205  0.0308 -0.0453
    1W        W54491   2.049  28.103   8.295  0.0516 -0.0355  0.0662
    1W        W54492   0.197   3.904   7.824  0.2282 -0.0977 -0.3609
    1W        W54493   2.629   3.857   7.595 -0.1406 -0.1463  0.2163
    1W        W54494  18.579   5.582   0.778  0.2170  0.0518  0.2242
    1W        W54495   5.508   8.095   8.212 -0.0641 -0.0934 -0.1615
    1W        W54496  17.240  22.203   0.762  0.2850  0.1633  0.0927
    1W        W54497   2.995  13.305   9.085  0.1743 -0.0920 -0.2433
    1W        W54498   6.282  14.704   6.721  0.1803  0.1555  0.2271
    1W        W54499  23.136   0.692   0.354  0.2522  0.0975 -0.2174
    1W        W54500   7.719   7.228   7.158 -0.1535  0.3167 -0.1127
    1W        W54501  22.057  17.217   6.651 -0.0448  0.3518 -0.0780
    1W        W54502   2.383  13.406   6.646  0.1891  0.4001 -0.2521
    1W        W54503   7.922  18.850   6.963  0.1464  0.0256  0.0521
    1W        W54504  27.637   0.489   2.460 -0.0246 -0.0888 -0.3418
    1W        W54505   6.628  22.951   2.072  0.0853 -0.0754 -0.1099
    1W        W54506   1.747  25.018   6.741  0.2025  0.1117 -0.0632
    1W        W54507  16.951  10.454   1.362 -0.4595  0.0589 -0.1460
    1W        W54508  26.023  26.088   2.558 -0.0216  0.0524  0.0386
    1W        W54509  17.470   6.079   7.745 -0.1077 -0.3246 -0.2385
    1W        W54510   8.534   6.708   9.099 -0.3612 -0.2635  0.0081
    1W        W54511  15.842  14.152   1.551  0.1113  0.0120  0.0475
    1W        W54512  12.932   3.190   2.616 -0.0331 -0.0339 -0.0133
    1W        W54513  21.135  10.395   1.183  0.2947 -0.3111  0.3096
    1W        W54514   5.307  21.456   7.713  0.2036  0.2203  0.0032
    1W        W54515  22.405  20.855   7.024  0.0569 -0.0087 -0.1450
    1W        W54516  23.156  19.736   1.906  0.0460 -0.0144  0.0772
    1W        W54517  29.567  24.266   1.551  0.0628 -0.0542 -0.3097
    1W        W54518  14.051  13.118   6.697  0.1125 -0.2587  0.1556
    1W        W54519  21.689  19.657   6.710 -0.2963 -0.2019  0.0259
    1W        W54520  10.099  20.748   2.081  0.2026 -0.0064  0.3019
    1W        W54521   3.557   0.318   9.421  0.4210 -0.0665 -0.0432
    1W        W54522   4.730  26.784   0.772 -0.1245 -0.0274  0.0197
    1W        W54523   6.259  25.030   8.747  0.0787 -0.2264  0.3014
    1W        W54524  27.407  13.643   0.448  0.2727 -0.1838  0.0352
    1W        W54525  26.085  15.716   0.027  0.0751 -0.1894 -0.0118
    1W        W54526  21.341   1.518   1.580 -0.1980  0.1582 -0.2583
    1W        W54527  14.347   1.801   1.080  0.2529 -0.0571  0.1508
    1W        W54528  14.036   0.744   2.068 -0.3735  0.0992 -0.1333
    1W        W54529  28.462   2.577   1.419  0.0258  0.1995  0.4200
    1W        W54530  24.415  19.638   2.722 -0.0852  0.0365  0.4087
    1W        W54531   7.524  13.368   1.822 -0.3058  0.0971  0.0906
    1W        W54532  26.430  28.493   8.834 -0.0648 -0.2096  0.1912
    1W        W54533   1.057   6.731   8.017  0.2850 -0.1733 -0.3176
    1W        W54534   3.390  25.992   9.280 -0.0058  0.0510  0.0634
    1W        W54535   7.620  17.348   1.097  0.2463 -0.0274  0.0595
    1W        W54536   5.403  25.952   1.177 -0.1101  0.4836 -0.0223
    1W        W54537  17.474   7.281   2.029  0.0792  0.2324 -0.2843
    1W        W54538   7.593  12.368   7.715  0.0149 -0.1486  0.3485
    1W        W54539  12.194   0.414   8.900  0.0841  0.3654  0.0122
    1W        W54540  11.815  26.346   7.770  0.0840 -0.1798 -0.1388
    1W        W54541   5.914  24.943   6.610  0.1789  0.1005  0.2127
    1W        W54542  10.024  15.171   1.047 -0.1158  0.3222 -0.3307
    1W        W54543  11.564  17.181   7.501  0.0337  0.1446 -0.0160
    1W        W54544  22.740  29.165   8.502 -0.1073 -0.0357 -0.1085
    1W        W54545  11.567  19.310   9.323 -0.1210 -0.2241 -0.2053
    1W        W54546  10.099  16.785   2.683  0.2529  0.2233  0.0555
    1W        W54547   4.003   6.370   1.820  0.1283  0.1373 -0.0548
    1W        W54548   5.168  25.085   1.567  0.1294  0.0433 -0.0827
    1W        W54549   0.855  19.547   1.830  0.2553  0.0680  0.0663
    1W        W54550   4.386  21.176   0.800  0.1898 -0.2537  0.1056
    1W        W54551  12.817  21.244   7.930  0.3438 -0.0586  0.0648
    1W        W54552   1.893  10.117   6.106  0.0246 -0.1416 -0.1345
    1W        W54553  29.117   9.745   7.464  0.1851  0.0120  0.1173
    1W        W54554  10.155   0.677   2.338  0.2070  0.1047  0.0188
    1W        W54555  25.772  10.562   2.629 -0.1017  0.0713  0.2546
    1W        W54556   3.189  14.660   7.602  0.4113  0.0422 -0.0662
    1W        W54557   0.368   3.314   1.566  0.4545  0.1571 -0.1366
    1W        W54558  16.684  23.827   6.556  0.1756  0.1674  0.0444
    1W        W54559  15.478   0.661   7.691  0.5269  0.0023  0.0569
    1W        W54560   5.527  10.531   9.247 -0.0590  0.1669  0.2154
    1W        W54561  25.939   6.611   3.019  0.0303 -0.2213  0.0346
    1W        W54562   0.773  24.811   8.113  0.0475 -0.2735  0.0302
    1W        W54563  25.237   1.592   0.749  0.1146 -0.0416 -0.0368
    1W        W54564   2.522  22.037   7.472  0.0914  0.0605  0.0157
    1W        W54565  23.764  29.025   8.655  0.1478 -0.4275  0.0191
    1W        W54566  20.142   7.252   0.661  0.2551  0.0983 -0.0184
    1W        W54567  29.212  26.311   2.791  0.1369 -0.0106  0.2007
    1W        W54568   7.665  26.300   1.093  0.2057  0.2025 -0.1356
    1W        W54569  12.663  19.448   8.614 -0.3358 -0.0603  0.1207
    1W        W54570  28.531  20.421   7.192  0.1493  0.1371 -0.0829
    1W        W54571  24.589  29.515   2.257  0.0796  0.0902  0.2387
    1W        W54572  28.216  29.473   9.314  0.0942  0.1108  0.0050
    1W        W54573  15.321  18.059   6.785  0.0207  0.1959 -0.1300
    1W        W54574  15.982   3.227   0.068  0.0452  0.4345 -0.1297
    1W        W54575  26.988  14.972   0.688  0.1011 -0.1278  0.0796
    1W        W54576   9.374  25.658   0.993  0.0781  0.0843 -0.1082
    1W        W54577  12.739   5.894   3.207 -0.2250 -0.0374  0.3464
    1W        W54578  14.883  16.281   7.220 -0.0607 -0.2443  0.0653
    1W        W54579  25.835   8.400   9.205 -0.0816 -0.0203 -0.0949
    1W        W54580  18.439   0.534   3.065 -0.0654  0.1071  0.1264
    1W        W54581  28.347  18.217   3.149  0.1846 -0.0571 -0.4279
    1W        W54582   1.503  18.979   6.603 -0.4751 -0.2622 -0.0451
    1W        W54583  15.449  21.428   9.244 -0.1382 -0.0697  0.0507
    1W        W54584   5.985   8.019   8.391  0.0798  0.5155 -0.0131
    1W        W54585  19.435  21.530   6.559 -0.0848 -0.0659 -0.2286
    1W        W54586  19.257  10.258   8.354  0.1272  0.1115 -0.2011
    1W        W54587  14.845   3.725   0.363 -0.2126 -0.0972 -0.0105
    1W        W54588  25.095  21.766   7.351 -0.2117  0.4931 -0.1502
    1W        W54589   9.153   2.052   7.249 -0.0528 -0.1236 -0.0434
    1W        W54590  20.904  25.097   1.596 -0.1321 -0.1932  0.0146
    1W        W54591  16.651  17.026   0.751 -0.0760  0.2656 -0.1916
    1W        W54592  14.783  25.907   1.765  0.1348 -0.1637  0.1718
    1W        W54593  12.553   8.468   9.516  0.0265 -0.0044 -0.2635
    1W        W54594  24.511  20.012   8.194 -0.2188 -0.1563  0.1663
    1W        W54595  13.559  21.113   9.026 -0.2103 -0.2139  0.1532
    1W        W54596  12.402   5.038   2.223  0.2306  0.0539  0.0122
    1W        W54597  23.228  11.519   7.285  0.0917 -0.0460  0.0434
    1W        W54598   3.071  11.553   1.171 -0.2086 -0.0736  0.1729
    1W        W54599  11.017  14.409   0.979  0.1306  0.0890  0.0530
    1W        W54600   2.002  28.555   9.151  0.2515 -0.0388 -0.1711
    1W        W54601  21.784  17.164   1.740 -0.0002  0.1827 -0.1139
    1W        W54602   3.368  29.388   6.873  0.1867  0.2353  0.0606
    1W        W54603   2.391  24.296   0.555 -0.0547  0.1623 -0.0888
    1W        W54604  11.439  20.035   7.226  0.0318 -0.2382 -0.0072
    1W        W54605  12.032  25.425   8.120  0.0812  0.1046 -0.2268
    1W        W54606  14.369  28.962   0.378 -0.0993  0.3340  0.1370
    1W        W54607   5.238  20.992   6.531 -0.0149  0.0379  0.1444
    1W        W54608  21.629   8.973   1.702 -0.1795  0.0140 -0.0449
    1W        W54609  17.627  27.829   9.363  0.0974  0.2409 -0.0063
    1W        W54610   9.451   1.799   0.549  0.0468 -0.1229 -0.0005
    1W        W54611   2.597  28.405   6.933  0.0580  0.2006  0.3002
    1W        W54612  27.789  17.674   0.182 -0.2007 -0.0523  0.2988
    1W        W54613  25.213  22.054   0.203  0.0370  0.1805  0.1656
    1W        W54614  15.740  10.971   8.237 -0.0514  0.0303  0.1527
    1W        W54615  14.063  19.013   0.632 -0.1657 -0.3208  0.1603
    1W        W54616  10.209  29.799   8.874 -0.0715  0.1413  0.1893
    1W        W54617   4.140  18.655   5.839  0.1036 -0.2172  0.0053
    1W        W54618  16.502  28.019   2.088  0.1620  0.1462 -0.1554
    1W        W54619   5.121  16.828   2.471 -0.1323  0.0784 -0.2128
    1W        W54620  13.945  18.691   0.230 -0.1455  0.0767 -0.0448
    1W        W54621  17.561   5.152   7.818  0.3487  0.0939 -0.1718
    1W        W54622  11.383  19.491   1.867 -0.1676 -0.2176 -0.4363
    1W        W54623  20.653  15.447   2.564  0.0801 -0.0651 -0.3635
    1W        W54624   6.692  21.395   7.275 -0.1070  0.0736  0.0780
    1W        W54625   7.503  20.013   0.923  0.1517 -0.0083 -0.1893
    1W        W54626   4.675  16.253   0.137  0.0940 -0.4634  0.2516
    1W        W54627  17.309  27.385   8.614  0.2156  0.1691  0.0967
    1W        W54628   1.383  10.903   8.123  0.1103  0.0095  0.1257
    1W        W54629   1.257  20.076   0.502 -0.2516 -0.0459 -0.1285
    1W        W54630   4.183   4.170   7.759  0.2461  0.3324  0.1833
    1W        W54631   5.144  20.176   0.682 -0.0698 -0.3271  0.0470
    1W        W54632   3.136   5.714   2.025 -0.0598 -0.1427  0.1397
    1W        W54633  21.329  13.993   0.468 -0.0290 -0.0812  0.0498
    1W        W54634  13.769  16.277   7.840  0.0123  0.1806 -0.0969
    1W        W54635  11.645   8.086   1.969 -0.1526 -0.1338  0.1629
    1W        W54636   5.541   3.206   2.023  0.1165 -0.2107 -0.0931
    1W        W54637   8.962  22.738   8.170  0.1984 -0.0031 -0.1726
    1W        W54638  17.242   2.597   8.983  0.0399 -0.1766 -0.1742
    1W        W54639  18.164  27.678   2.570  0.1983 -0.1022 -0.0175
    1W        W54640   0.335  21.804   1.337  0.0061 -0.1449  0.0898
    1W        W54641  19.140   3.772   3.668  0.0441  0.1878  0.0654
    1W        W54642   0.461  27.137   1.289  0.2688 -0.4623  0.2475
    1W        W54643  27.546   1.030   7.039  0.1137  0.3080 -0.0751
    1W        W54644   0.830  15.466   6.551  0.2057  0.2378 -0.0478
    1W        W54645  25.437  14.654   9.359 -0.0927 -0.1882  0.5520
    1W        W54646  20.469   4.508   0.294  0.0876 -0.0984 -0.0202
    1W        W54647  24.484  14.482   9.155 -0.0945 -0.4830 -0.0637
    1W        W54648  10.431  15.759   8.370  0.0581 -0.2432  0.0720
    1W        W54649  27.049  16.984   0.373  0.0222 -0.1126 -0.0115
    1W        W54650  16.921   1.441   3.727 -0.2857 -0.2167  0.2529
    1W        W54651   7.215   6.155   8.721 -0.0434 -0.2197 -0.1977
    1W        W54652   4.891  22.066   8.899 -0.0710  0.2667  0.1041
    1W        W54653  28.399   3.957   1.452 -0.4522 -0.0540  0.0961
    1W        W54654   8.775   5.351   1.182 -0.2794  0.0745 -0.1341
    1W        W54655   8.603  14.526   9.214  0.0201 -0.1115 -0.0498
    1W        W54656   4.119  16.689   7.488 -0.2630 -0.2542  0.4079
    1W        W54657  16.360  14.383   2.180 -0.2810  0.2775  0.2907
    1W        W54658  14.075  21.848   7.700 -0.1573 -0.0699 -0.2429
    1W        W54659  13.193   3.752   8.899 -0.1845 -0.0574 -0.0246
    1W        W54660   7.657   2.119   8.877  0.0280 -0.0481 -0.0753
    1W        W54661   7.288  20.106   8.256  0.1668  0.0933 -0.1822
    1W        W54662  13.382  14.516   9.017  0.0547 -0.0897  0.2941
    1W        W54663   0.368  13.095   0.324 -0.0337 -0.0986 -0.2890
    1W        W54664  24.708  28.146   0.021  0.4282 -0.1189 -0.1186
    1W        W54665  25.929  11.839   2.939 -0.3472 -0.0462 -0.1478
    1W        W54666   0.626  27.849   6.603  0.0993  0.2250 -0.1181
    1W        W54667  28.739  25.365   3.040 -0.0671  0.1395 -0.2937
    1W        W54668   5.508  28.661   7.485  0.0395 -0.1223  0.1323
    1W        W54669  17.887   9.130   0.693 -0.1286 -0.0290 -0.0878
    1W        W54670  29.292   0.854   7.960 -0.1049  0.0915 -0.0799
    1W        W54671  17.682  20.237   5.511  0.3331 -0.0089  0.0315
    1W        W54672   9.935  17.297   1.975  0.0174  0.2368  0.3444
    1W        W54673   2.894   1.118   6.723  0.0451 -0.1007 -0.3681
    1W        W54674  19.521  13.563   9.058 -0.3639 -0.1020  0.2092
    1W        W54675  13.366   4.274   2.897 -0.0384  0.0990 -0.0383
    1W        W54676  10.502   2.516   8.031  0.2224  0.0519 -0.0684
    1W        W54677  23.604  11.612   7.914 -0.0820 -0.4080 -0.3705
    1W        W54678   4.371  20.315   1.198  0.1095  0.0457  0.1318
    1W        W54679  23.335  28.879   1.822 -0.1643  0.2222  0.1242
    1W        W54680  15.212  25.259   1.745  0.0856  0.3385  0.1174
    1W        W54681   9.836  28.327   2.083 -0.0808 -0.1044 -0.2352
    1W        W54682  26.681  11.378   8.904 -0.0621 -0.0865  0.1839
    1W        W54683   0.664  20.912   1.529  0.1102 -0.0310  0.0852
    1W        W54684  14.522   2.871   8.923  0.1623 -0.0401 -0.1512
    1W        W54685   4.693  26.156   9.379  0.0627  0.1326 -0.1712
    1W        W54686  13.749  15.409   9.124  0.0739  0.0481  0.2783
    1W        W54687   4.804  23.638   7.972 -0.0217 -0.1132  0.1577
    1W        W54688   0.302  21.411   0.773  0.4473 -0.0715  0.2733
    1W        W54689  16.941  18.688   8.167  0.0680 -0.0466  0.1546
    1W        W54690  15.918  28.366   7.846 -0.1473  0.1690 -0.1868
    1W        W54691  23.460   9.530   9.389 -0.1575  0.3659  0.2370
    1W        W54692  26.010  11.445   9.390  0.1956  0.0424 -0.0406
    1W        W54693  18.410  17.620   8.882  0.2275  0.1572 -0.2463
    1W        W54694  17.674   8.384   0.990 -0.0633  0.0396 -0.0197
    1W        W54695   4.563  14.984   0.334  0.0900 -0.0499  0.1643
    1W        W54696   9.999   8.499   1.847  0.5127 -0.2689 -0.0693
    1W        W54697   8.545   6.240   6.160 -0.2790  0.1934 -0.2757
    1W        W54698   8.889   3.712   8.971  0.0970 -0.1124 -0.5379
    1W        W54699  28.637  26.275   6.813  0.1495  0.0780 -0.1777
    1W        W54700   2.989   4.192   7.287  0.2412 -0.1831  0.2202
    1W        W54701   9.656  27.241   9.102  0.1756 -0.0754  0.2103
    1W        W54702  18.839   0.525   8.380  0.4757 -0.0555  0.0188
    1W        W54703  27.590  15.704   7.041  0.2071  0.0448  0.3228
    1W        W54704  16.764  23.368   6.273 -0.0245  0.4018 -0.0117
    1W        W54705   9.422   0.751   0.746  0.2550 -0.0826  0.0389
    1W        W54706  19.584  26.483   1.022 -0.1629 -0.2025 -0.0349
    1W        W54707  11.389  16.847   1.565 -0.0138  0.1108 -0.1338
    1W        W54708  16.142  16.073   9.085 -0.0575 -0.1448 -0.0187
    1W        W54709  27.725  20.222   1.731 -0.3293  0.3944  0.1650
    1W        W54710   3.220  19.997   6.157 -0.0569  0.0991  0.0837
    1W        W54711  17.350  20.010   8.167 -0.0311 -0.0007 -0.3625
    1W        W54712  14.640  15.889   0.496 -0.0066  0.3169 -0.1237
    1W        W54713  28.859  23.918   7.975  0.1429 -0.2671  0.0767
    1W        W54714  15.702   8.534   0.696 -0.3177  0.1829 -0.2676
    1W        W54715  23.944  17.892   9.054 -0.1819 -0.1313 -0.0308
    1W        W54716  22.818  12.583   8.304 -0.0345 -0.1239 -0.1032
    1W        W54717   4.016  20.876   1.568 -0.0076  0.2234  0.1858
    1W        W54718  17.760  28.905   9.114 -0.1796  0.2209 -0.2204
    1W        W54719   8.750  15.391   2.835  0.2986  0.1422  0.0375
    1W        W54720   1.859  21.420   2.299 -0.0394  0.2023  0.1142
    1W        W54721  28.110   9.680   7.569  0.3517  0.0338  0.1112
    1W        W54722  18.255  18.053   1.204  0.0764  0.0712  0.0449
    1W        W54723  28.006  14.619   2.198  0.0605  0.3186  0.0025
    1W        W54724  20.000   8.399   8.497  0.2099  0.0294 -0.1867
    1W        W54725  23.654   1.997   0.374  0.0301  0.0281 -0.0331
    1W        W54726  27.747  29.744   6.329 -0.0629 -0.2788  0.1694
    1W        W54727  27.096   4.845   9.112  0.1164  0.1242  0.1722
    1W        W54728  17.526  29.342   9.401 -0.0900  0.1195 -0.4268
    1W        W54729   8.720  18.394   8.206 -0.0442  0.0115  0.0064
    1W        W54730   6.381   1.183   8.684  0.0266  0.4952  0.0580
    1W        W54731  14.707   5.549   9.468  0.0689 -0.1269 -0.4134
    1W        W54732   3.558  10.770   3.071  0.1725  0.1264  0.2106
    1W        W54733  20.025   9.580   7.679  0.1275 -0.0782 -0.1436
    1W        W54734   3.867  16.440   7.086 -0.2445  0.1937 -0.0356
    1W        W54735   5.389  25.754   0.152  0.0217  0.2544  0.1113
    1W        W54736   0.930  19.869   7.305  0.1795  0.1314  0.1199
    1W        W54737  18.228  16.060   0.988 -0.2925 -0.1162  0.2141
    1W        W54738  22.558   4.351   0.600 -0.2364 -0.0009  0.2187
    1W        W54739  22.259  26.113   8.050  0.0035  0.0160 -0.0348
    1W        W54740  26.383  28.402   7.731 -0.1709 -0.1497 -0.3138
    1W        W54741  18.840  22.533   8.105  0.1140  0.2887  0.1449
    1W        W54742  19.908  28.832   7.405 -0.1365  0.1425  0.1263
    1W        W54743  20.240  22.039   7.243 -0.2574 -0.2343 -0.3742
    1W        W54744  17.157   3.553   9.402  0.0972 -0.1675 -0.0316
    1W        W54745  27.419  12.885   8.161 -0.1168 -0.1105 -0.3448
    1W        W54746   6.996  20.032   0.051 -0.1014  0.3368  0.0201
    1W        W54747  13.170   2.257   0.628  0.1621  0.1898 -0.2494
    1W        W54748   6.426  25.403   7.304 -0.3184  0.0669  0.1432
    1W        W54749   3.818  23.127   0.135 -0.1541 -0.0785  0.0604
    1W        W54750   3.778  27.452   8.333 -0.0518  0.1663  0.1858
    1W        W54751  23.997  26.558   0.630  0.1762 -0.0026  0.0333
    1W        W54752  19.290  25.540   2.095  0.0285  0.0473 -0.1045
    1W        W54753   8.728  11.588   6.741  0.1855 -0.2746  0.2459
    1W        W54754  15.824  24.253   7.167 -0.1768 -0.0743 -0.1029
    1W        W54755  16.249  22.769   6.825 -0.1588  0.0180  0.3008
    1W        W54756   4.111   8.490   8.683 -0.0358  0.1522  0.5367
    1W        W54757  26.796  18.631   7.343  0.1029 -0.1019  0.2803
    1W        W54758  14.126   0.218   2.763  0.1117  0.1178  0.3571
    1W        W54759  26.901   4.618   7.177 -0.2285 -0.0809 -0.0046
    1W        W54760  28.063  25.327   0.370 -0.0855 -0.3255 -0.0819
    1W        W54761  22.632   9.463   0.599  0.2624  0.1162 -0.2021
    1W        W54762   8.207  27.100   7.919  0.0990 -0.4553  0.4485
    1W        W54763   7.328  12.878   1.815  0.1553 -0.1738 -0.0545
    1W        W54764   8.227   4.982   2.683 -0.2426 -0.1367  0.0767
    1W        W54765  12.250  13.498   8.831 -0.1213 -0.0320  0.2339
    1W        W54766   4.063   4.980   0.715 -0.0771 -0.0419 -0.1999
    1W        W54767  10.005  23.642   6.346  0.1009  0.2327 -0.0454
    1W        W54768  15.586   3.872   9.296  0.1738 -0.0279 -0.1457
    1W        W54769  10.499  13.819   6.353 -0.1627  0.2033  0.2574
    1W        W54770  17.666  28.240   8.593  0.2090  0.0229  0.0226
    1W        W54771   0.265  14.959   1.720  0.1645 -0.1333 -0.1274
    1W        W54772  16.516  16.018   8.776 -0.0428  0.1216  0.0692
    1W        W54773   1.321  19.814   9.245  0.0705 -0.4153 -0.0212
    1W        W54774  13.316  26.113   8.820 -0.3119 -0.0436 -0.0040
    1W        W54775  23.648  24.790   8.010 -0.1828 -0.3290 -0.1435
    1W        W54776  18.661  20.360   1.436  0.1547 -0.1717 -0.3274
    1W        W54777  17.491  20.712   5.790 -0.2212  0.1378  0.2187
    1W        W54778   6.853   9.989   1.988  0.1850 -0.0275 -0.3881
    1W        W54779  11.852   8.798   8.024 -0.0345  0.1108  0.0239
    1W        W54780  14.554  10.813   9.007 -0.0478  0.1687 -0.1250
    1W        W54781  14.820  25.087   0.316  0.0143  0.0120  0.0472
    1W        W54782   7.062  11.861   0.202  0.4690 -0.0146 -0.4321
    1W        W54783   5.596  25.574   8.475  0.0083  0.2258 -0.0485
    1W        W54784  13.783  21.093   5.796  0.0031  0.0604  0.0103
    1W        W54785  19.002   7.002   0.569 -0.2620 -0.0481  0.0215
    1W        W54786  24.597  29.488   1.786 -0.1704 -0.0247 -0.1358
    1W        W54787  16.489  12.442   8.090  0.2019 -0.0261 -0.2542
    1W        W54788  16.429  19.261   1.189 -0.0132  0.0966 -0.1151
    1W        W54789  18.838   5.718   9.068 -0.1592  0.2629 -0.3025
    1W        W54790   8.397  26.313   8.405 -0.1984  0.0754  0.5056
    1W        W54791  12.617  22.522   7.869  0.2372 -0.0305  0.3519
    1W        W54792  27.021  19.040   8.711 -0.0463 -0.1920 -0.1298
    1W        W54793  19.394   1.184   1.743  0.1575  0.1915 -0.0858
    1W        W54794   3.096   6.868   7.998 -0.1015 -0.0637  0.1036
    1W        W54795  25.298  18.364   7.182  0.3111 -0.0316 -0.0199
    1W        W54796  24.890   6.543   8.777 -0.0244  0.1503 -0.3399
    1W        W54797  28.215  15.058   0.515 -0.0099 -0.0523 -0.0819
    1W        W54798  20.931   4.126   1.013  0.0196 -0.0083  0.1787
    1W        W54799  18.553  26.076   6.513  0.1010  0.2615  0.1226
    1W        W54800  29.506  17.057   9.301 -0.2854 -0.1445  0.3683
    1W        W54801  13.615  15.521   6.690 -0.1610  0.3345 -0.0447
    1W        W54802   3.751  28.906   1.824 -0.1125 -0.3518 -0.1790
    1W        W54803   3.434  15.511   0.194  0.3838  0.3958 -0.1602
    1W        W54804  13.552   6.928   3.488 -0.0597  0.1646 -0.1118
    1W        W54805   2.062  19.022   0.013 -0.0409  0.0994 -0.0870
    1W        W54806  23.164  20.056   9.051 -0.2160  0.1237  0.1305
    1W        W54807   0.067  12.415   2.065  0.3616  0.1907  0.1003
    1W        W54808   7.058   8.825   1.792 -0.2595 -0.1697 -0.1117
    1W        W54809  29.003  22.385   3.419 -0.0587 -0.1841 -0.1222
    1W        W54810   4.754   8.493   7.390  0.2226 -0.0782 -0.0138
    1W        W54811   4.466   4.938   2.591  0.0522 -0.1046  0.0072
    1W        W54812  22.918  24.658   9.003 -0.0832  0.2526  0.2191
    1W        W54813  25.702  17.000   7.558  0.0159 -0.2275  0.1034
    1W        W54814   5.620  23.493   6.787  0.1849 -0.3242 -0.0716
    1W        W54815   5.531  28.149   7.962  0.2463 -0.2445  0.1167
    1W        W54816  15.118  23.775   7.559  0.1297 -0.0721  0.2775
    1W        W54817  10.522   7.463   0.125  0.1528 -0.1605 -0.1010
    1W        W54818   8.541   1.785   8.274  0.3031 -0.1180 -0.0355
    1W        W54819  19.528   2.327   8.655 -0.2628  0.0567  0.2896
    1W        W54820  20.253  27.477   1.902  0.1359 -0.1899 -0.2617
    1W        W54821  18.012  24.196   0.245 -0.1760 -0.0162 -0.3136
    1W        W54822   1.146   2.897   7.796 -0.1201 -0.0891 -0.2226
    1W        W54823  27.700  25.453   9.529 -0.1725 -0.0257 -0.0352
    1W        W54824   0.622  23.685   0.123 -0.1207 -0.0720 -0.0357
    1W        W54825  15.110   8.610   1.442 -0.0779 -0.1030  0.2327
    1W        W54826  24.833  18.613   8.651 -0.0588  0.0984  0.0837
    1W        W54827   7.144  24.892   0.064  0.2311 -0.2165  0.0029
    1W        W54828   3.207  13.590   8.711 -0.0090 -0.1409  0.0123
    1W        W54829   7.012  25.469   8.949  0.0385 -0.1224  0.5377
    1W        W54830  15.696  21.280   5.980 -0.2256  0.0404 -0.0484
    1W        W54831   6.634  22.350   8.079 -0.0841 -0.0350  0.1941
    1W        W54832   0.682  24.320   8.338 -0.0407 -0.1174 -0.1478
    1W        W54833   5.627   8.237   1.480 -0.1209  0.0352 -0.0216
    1W        W54834  16.254   3.587   9.375  0.0676 -0.2569 -0.4258
    1W        W54835  23.764   7.539   0.735  0.3119  0.2295 -0.1825
    1W        W54836   8.989  23.552   8.633 -0.1607  0.0116 -0.1315
    1W        W54837   1.122   0.672   0.646 -0.1751 -0.1585  0.0338
    1W        W54838   7.101  13.810   1.747 -0.0988  0.0408 -0.3044
    1W        W54839  29.006   9.319   7.790  0.1584 -0.0307 -0.2714
    1W        W54840  25.382  13.834   2.311 -0.1044  0.1495 -0.2161
    1W        W54841  28.103   0.444   8.621 -0.1149 -0.0449 -0.0530
    1W        W54842  23.200  11.741   9.081 -0.3159 -0.1114  0.1377
    1W        W54843   7.726  11.709   0.348  0.2304  0.2762  0.0835
    1W        W54844  27.717  19.805   8.453  0.1700  0.1461  0.0356
    1W        W54845  24.119  18.217   6.656  0.0161  0.1406  0.0592
    1W        W54846  28.192  25.496   7.669 -0.1154  0.0580 -0.1348
    1W        W54847  14.301  18.903   9.242 -0.3260  0.0330  0.0694
    1W        W54848   4.746  29.557   6.687  0.1190  0.0674 -0.2836
    1W        W54849  15.139  23.165   5.624  0.0654 -0.1125  0.1120
    1W        W54850  15.428  14.731   8.062 -0.2611  0.1076 -0.1270
    1W        W54851  19.487  12.039   9.472 -0.0934 -0.0867 -0.0063
    1W        W54852  10.389  16.716   1.713 -0.0330 -0.0939 -0.1085
    1W        W54853  14.936  14.526   0.496  0.2024 -0.0858  0.0591
    1W        W54854  15.921  10.697   1.162 -0.0549 -0.0225 -0.2207
    1W        W54855   1.342  17.245   6.268  0.0923 -0.2339 -0.0609
    1W        W54856   2.621   3.937   8.916  0.1196  0.1049  0.0715
    1W        W54857  23.213  14.512   2.677 -0.1200 -0.2845 -0.0936
    1W        W54858   2.908  20.676   6.533 -0.1754  0.0794  0.0944
    1W        W54859  26.271  20.941   8.278  0.2002  0.1209  0.0867
    1W        W54860  14.507  11.111   8.618  0.1293 -0.1105  0.3200
    1W        W54861   5.056  26.090   0.202  0.3129 -0.1850  0.2436
    1W        W54862  15.415   1.759   9.023  0.3872  0.3947 -0.1545
    1W        W54863  18.830  14.395   7.231  0.3940  0.0631  0.1825
    1W        W54864  26.005  19.745   6.961 -0.3069  0.1101  0.0390
    1W        W54865   0.144   6.130   3.226  0.0411  0.2172 -0.0408
    1W        W54866  16.942  20.284   0.021  0.1237  0.1321 -0.1649
    1W        W54867  14.961  25.694   8.658 -0.2133  0.0314 -0.3205
    1W        W54868  24.612   1.688   2.797 -0.1188 -0.1022  0.1249
    1W        W54869   4.518  20.103   6.544 -0.2766  0.1101  0.0422
    1W        W54870   7.927   0.269   9.380 -0.2216  0.1576 -0.1702
    1W        W54871   8.012   8.624   2.272 -0.2407 -0.0385  0.0255
    1W        W54872  29.035   0.309   8.903 -0.5045  0.1172  0.3141
    1W        W54873   4.782  17.066   1.798  0.0355 -0.1757 -0.0366
    1W        W54874  20.900   7.164   0.776 -0.2406 -0.1477 -0.1131
    1W        W54875   4.209   1.212   1.104 -0.1788 -0.1194  0.0339
    1W        W54876   5.219  17.250   6.649 -0.0306 -0.1066 -0.0287
    1W        W54877  10.192  14.466   1.240 -0.1466 -0.2902  0.0064
    1W        W54878  25.613  29.443   1.797  0.2310  0.1249  0.0467
    1W        W54879  17.669   1.148   7.957 -0.0391  0.0662 -0.0204
    1W        W54880   6.823  29.809   1.957 -0.1308 -0.0673  0.3454
    1W        W54881  14.299   4.772   1.769  0.0093 -0.0299 -0.1869
    1W        W54882  13.856  26.065   0.728 -0.2747 -0.0914  0.3886
    1W        W54883  29.268  29.067   0.649 -0.1441 -0.0194  0.1792
    1W        W54884  28.955  12.095   3.124 -0.1745  0.1407  0.0806
    1W        W54885  27.418  15.249   2.672 -0.0373  0.1643  0.1725
    1W        W54886  11.269  10.288   0.311 -0.3267  0.2515 -0.0950
    1W        W54887  13.700   4.626   1.868  0.1415  0.3499 -0.0618
    1W        W54888  14.234  10.468   7.771 -0.1455  0.2237 -0.2973
    1W        W54889  25.229  13.562   9.444 -0.2226  0.3327 -0.0952
    1W        W54890  29.736  20.004   0.009  0.0602  0.2327  0.3359
    1W        W54891  12.751  10.321   0.307  0.3032 -0.0622  0.1122
    1W        W54892   9.798   7.439   2.615  0.2230 -0.0108  0.0363
    1W        W54893  27.363  17.479   0.129  0.5098 -0.0259 -0.0396
    1W        W54894   2.691  11.157   0.337 -0.2190  0.1776 -0.1448
    1W        W54895  14.772   0.955   3.234 -0.1044  0.0976  0.3631
    1W        W54896  10.741  18.749   8.025 -0.0232 -0.1396 -0.1782
    1W        W54897  12.026  21.973   7.004 -0.2254  0.2714  0.1751
    1W        W54898  18.228  18.162   8.804 -0.1756  0.3264  0.0970
    1W        W54899  13.533  16.059   2.591  0.2550 -0.0955  0.2156
    1W        W54900   8.681  26.769   0.672 -0.2071  0.4364  0.1049
    1W        W54901   8.210  23.763   1.766 -0.1393  0.0879 -0.0170
    1W        W54902  16.111  29.343   7.426 -0.1049 -0.0139 -0.1773
    1W        W54903  29.042   6.264   7.666  0.0112  0.0039  0.3507
    1W        W54904  15.379  20.420   1.930  0.0344 -0.0849 -0.1685
    1W        W54905  11.368  14.328   9.454 -0.1223  0.3753 -0.0069
    1W        W54906  27.751   4.584   1.561  0.2068  0.3404 -0.0228
    1W        W54907   6.861  25.631   2.059 -0.0864  0.2724  0.1001
    1W        W54908   7.322   4.070   6.975  0.1001  0.0415  0.0748
    1W        W54909   8.743  12.258   8.907 -0.3766 -0.1640  0.2129
    1W        W54910   6.732  11.709   7.142  0.0098  0.1019 -0.3116
    1W        W54911   3.669  14.698   7.347  0.0308 -0.1146 -0.1580
    1W        W54912  12.037  10.370   8.827 -0.0673  0.0757  0.0212
    1W        W54913  14.239   9.921   7.612 -0.0081 -0.4673  0.1691
    1W        W54914  11.019  16.087   0.429  0.2811  0.0998 -0.0314
    1W        W54915  25.476  27.637   0.664  0.3019  0.1292 -0.2801
    1W        W54916  27.899   7.433   9.182 -0.2856  0.0444 -0.0990
    1W        W54917  14.813  14.148   8.036  0.0023 -0.1083  0.1012
    1W        W54918  12.518   8.039   9.253 -0.0626  0.3383  0.0750
    1W        W54919  14.231  15.026   7.317 -0.1185 -0.3222  0.1152
    1W        W54920  22.319  29.293   2.441  0.3043  0.0138 -0.0725
    1W        W54921   4.136   6.902   7.156 -0.1182 -0.1166 -0.0284
    1W        W54922   9.389  14.599   2.102  0.2157 -0.1622 -0.0703
    1W        W54923  17.549  13.938   1.275  0.4227  0.1529  0.0981
    1W        W54924  23.735  24.496   8.593  0.2244  0.2359  0.0327
    1W        W54925  11.090  12.353   9.514 -0.0740  0.1267  0.1095
    1W        W54926  10.743   5.226   0.069  0.2335 -0.1038 -0.0519
    1W        W54927  12.507   8.884   9.201  0.2286  0.0062 -0.1469
    1W        W54928  12.590   4.630   1.047 -0.0706  0.3933  0.0768
    1W        W54929  28.681  24.157   9.000 -0.0422 -0.0438 -0.0599
    1W        W54930  22.562   0.610   8.749 -0.2195 -0.2614  0.0327
    1W        W54931   5.104   2.443   1.175  0.0298 -0.0396  0.2468
    1W        W54932  20.012  22.013   1.517 -0.4684 -0.3153 -0.0518
    1W        W54933  29.095  10.417   0.451  0.1578  0.2376  0.0553
    1W        W54934   9.323  24.153   7.852  0.0278 -0.4785 -0.0783
    1W        W54935   2.505  22.642   1.130  0.1865  0.1305 -0.1629
    1W        W54936  17.700   1.220   2.906  0.1017  0.1067 -0.0253
    1W        W54937  28.809  12.452   1.156  0.2656 -0.0669 -0.1398
    1W        W54938  12.183  19.459   8.360  0.3875  0.0683  0.1123
    1W        W54939   0.237  25.880   6.478 -0.0228  0.1805  0.3017
    1W        W54940  21.444   9.772   6.939 -0.0070  0.2424  0.1079
    1W        W54941  25.970  23.813   8.967  0.3740  0.0759 -0.1471
    1W        W54942  17.451  10.125   1.523 -0.0107  0.0100 -0.0375
    1W        W54943  10.167  20.604   1.009 -0.3316  0.2208  0.0450
    1W        W54944  10.791  22.332   0.430  0.1144 -0.2688  0.1235
    1W        W54945  14.361  26.364   6.226  0.0347 -0.0372 -0.2342
    1W        W54946  22.638   7.067   2.919 -0.0751  0.2010 -0.1604
    1W        W54947   1.776   3.703   8.702  0.2228  0.1852 -0.0364
    1W        W54948   7.968  24.622   9.207 -0.0610  0.0032 -0.4177
    1W        W54949   1.247   1.895   1.981  0.0307  0.1276  0.1846
    1W        W54950  22.920  23.964   1.710  0.0424  0.0411  0.0485
    1W        W54951   2.497  28.668   7.466 -0.2385 -0.1751 -0.1012
    1W        W54952   4.322   4.317   7.300  0.2955  0.1899  0.0185
    1W        W54953  19.763   7.384   3.377  0.0780  0.0308 -0.2166
    1W        W54954  15.977   0.426   8.200 -0.0832  0.0099 -0.1262
    1W        W54955  15.697   2.880   2.538 -0.1862  0.1831  0.0730
    1W        W54956  22.840  21.804   0.195 -0.1689 -0.0107  0.1051
    1W        W54957  24.705  25.276   6.857 -0.3332 -0.2638  0.1251
    1W        W54958   6.352  12.969   5.828  0.2920  0.1916  0.0410
    1W        W54959   5.906  13.295   7.458 -0.0492 -0.0440  0.1344
    1W        W54960  14.134  14.863   2.099 -0.1363  0.0959 -0.1100
    1W        W54961   7.515  18.793   1.713 -0.3240 -0.0342 -0.0112
    1W        W54962  21.296   8.040   0.442  0.1210  0.2132  0.0837
    1W        W54963  18.994   3.795   3.201  0.1212 -0.1723  0.1511
    1W        W54964  29.613  17.220   7.190  0.0651 -0.1524 -0.1253
    1W        W54965   2.380  14.667   1.690  0.1847  0.1335  0.0495
    1W        W54966   6.972  17.770   2.221 -0.1141  0.0360  0.0994
    1W        W54967   8.463   2.073   7.718  0.0416 -0.0345 -0.1745
    1W        W54968  27.253  20.035   1.611 -0.0357 -0.0637  0.1358
    1W        W54969  18.279   3.580   4.201 -0.3948 -0.3373 -0.0526
    1W        W54970  10.863  27.252   2.123  0.1795  0.0597 -0.1676
    1W        W54971   1.406  25.236   1.008 -0.0486 -0.2187 -0.0089
    1W        W54972  14.842   8.884   2.073 -0.1080 -0.2922  0.1699
    1W        W54973  27.466   1.886   1.846 -0.0050  0.0775 -0.1151
    1W        W54974  11.500  18.734   8.363  0.1337  0.2595  0.0115
    1W        W54975   9.530  12.574   0.362 -0.2043  0.2405  0.0587
    1W        W54976  29.227   4.072   0.166  0.2320  0.1046  0.1220
    1W        W54977  16.556  25.018   0.220  0.0259 -0.2246  0.2222
    1W        W54978   5.813  26.293   6.282  0.1280  0.2180 -0.1428
    1W        W54979   7.854  18.515   0.261 -0.1824  0.0077  0.0043
    1W        W54980   8.146  25.165   6.210  0.0941 -0.1425  0.0579
    1W        W54981  12.320  25.873   7.776 -0.0718  0.2794 -0.0286
    1W        W54982   1.486  14.893   6.851  0.3021 -0.2735 -0.4917
    1W        W54983  21.246  11.141   7.435 -0.3166 -0.0172  0.0162
    1W        W54984   8.857  25.125   6.697  0.1649  0.0908 -0.0354
    1W        W54985  24.621   2.875   8.828  0.1163 -0.5671  0.3257
    1W        W54986   7.633   8.181   2.195 -0.2090 -0.0020  0.0353
    1W        W54987  11.183  11.621   7.226  0.0066 -0.0555 -0.2232
    1W        W54988   2.967  16.331   0.204  0.0768 -0.3889 -0.5787
    1W        W54989  14.340   5.223   3.261 -0.3510 -0.0301  0.0120
    1W        W54990   5.946  28.452   0.989  0.2217  0.1453 -0.2816
    1W        W54991  16.255  16.924   0.160 -0.1559 -0.1209 -0.2507
    1W        W54992  22.378  23.119   1.356  0.1724  0.2796 -0.2745
    1W        W54993  29.727   4.250   7.044  0.1469  0.0820  0.0454
    1W        W54994  12.373  19.317   2.149  0.1315  0.0359 -0.0023
    1W        W54995   8.918  24.585   6.752 -0.1711  0.2955 -0.0048
    1W        W54996  24.289   4.493   8.912 -0.1459  0.1513 -0.0435
    1W        W54997   1.430  10.815   7.670 -0.0069  0.2573 -0.1541
    1W        W54998  11.733   8.811   2.459  0.1026 -0.2178  0.3039
    1W        W54999  23.816  24.170   7.326 -0.0455 -0.3295 -0.1796
    1W        W55000   5.022   0.272   5.939 -0.0101  0.0104 -0.1625
    1W        W55001  28.126   4.465   7.418 -0.1113  0.0416  0.1243
    1W        W55002   6.609  18.992   9.006 -0.0768 -0.0965 -0.0261
    1W        W55003  10.978  22.902   7.121 -0.0516  0.0753 -0.0505
    1W        W55004  14.804  15.440   8.374  0.2961 -0.0412 -0.3584
    1W        W55005   1.873   0.117   1.501  0.0513 -0.1253 -0.0225
    1W        W55006   5.464  12.614   7.023  0.0067  0.0584  0.0414
    1W        W55007   2.730  20.283   0.792  0.0899  0.0299 -0.2523
    1W        W55008  10.324  16.201   8.703 -0.1436  0.0445 -0.2263
    1W        W55009   9.756  24.493   8.014  0.0114  0.4118  0.0718
    1W        W55010   2.346   3.776   9.323  0.2729  0.1871 -0.0393
    1W        W55011  29.427  21.495   3.287 -0.2028  0.1423  0.1181
    1W        W55012  28.963  28.166   5.888 -0.0333  0.0390 -0.3786
    1W        W55013   0.359  17.336   8.893 -0.4077 -0.0595 -0.3449
    1W        W55014  11.534  28.216   9.352 -0.1822 -0.0518 -0.1437
    1W        W55015   6.500  28.493   0.098 -0.2253 -0.0215 -0.3656
    1W        W55016  23.225  18.483   6.661  0.1329  0.0183  0.1158
    1W        W55017  12.331   5.870   3.442 -0.0767  0.0465 -0.3675
    1W        W55018  15.709   7.987   7.978  0.0134  0.1006 -0.1969
    1W        W55019   3.432   9.966   8.983 -0.2089  0.4066 -0.0773
    1W        W55020  10.052  16.232   7.076 -0.1931  0.1054 -0.0092
    1W        W55021  11.105   0.039   1.010  0.0267 -0.0441  0.1762
    1W        W55022   3.903  21.383   0.850  0.2352 -0.1293  0.0099
    1W        W55023   5.559   5.762   0.645  0.1696  0.0896 -0.3873
    1W        W55024   0.064   1.388   6.872  0.0496 -0.1763 -0.2144
    1W        W55025   3.287  11.062   1.378  0.3901 -0.0008 -0.0516
    1W        W55026   5.794   3.279   2.443 -0.3980  0.0564 -0.1178
    1W        W55027  16.587   4.930   8.458  0.0696  0.0543  0.4139
    1W        W55028  26.439   0.290   0.235  0.1627  0.0763  0.1394
    1W        W55029  20.480   3.972   7.604 -0.1532 -0.1141  0.1462
    1W        W55030  23.406  24.228   1.796 -0.0897 -0.0871 -0.1237
    1W        W55031  17.277  23.753   8.016 -0.1466 -0.0972  0.1537
    1W        W55032  18.660  24.023   8.588  0.3969  0.1306 -0.0553
    1W        W55033  18.686  20.902   6.810 -0.1167 -0.0948  0.0863
    1W        W55034   0.719   3.443   7.164 -0.0184  0.0260 -0.1960
    1W        W55035  18.823  26.996   2.788  0.3019 -0.1362  0.1102
    1W        W55036  18.348   2.067   2.678  0.1443 -0.0116 -0.3908
    1W        W55037  10.957  29.042   7.436  0.0926 -0.1867  0.1592
    1W        W55038   9.598  24.345   7.416  0.2259 -0.0165 -0.0707
    1W        W55039  18.422  17.862   7.906  0.0075 -0.2986  0.0460
    1W        W55040   3.879  24.331   5.563  0.1142  0.0418  0.3116
    1W        W55041  17.402  18.789   6.548  0.0019 -0.0262  0.0844
    1W        W55042   8.349  11.420   9.105 -0.1670 -0.1428  0.0273
    1W        W55043  17.758   0.128   8.167 -0.0891  0.0523  0.0336
    1W        W55044  18.461  18.919   1.001  0.2115 -0.1833  0.1354
    1W        W55045  21.219   0.493   1.897 -0.0354  0.1982  0.0710
    1W        W55046   0.975  19.693   2.343 -0.0567 -0.2624  0.0442
    1W        W55047  15.233  10.683   1.709  0.0073  0.2047  0.0413
    1W        W55048   6.174  11.602   7.732 -0.1405 -0.1790  0.0441
    1W        W55049  11.978   7.014   3.236 -0.0414  0.2581  0.0201
    1W        W55050  23.197  16.514   8.441  0.0451 -0.3201 -0.0926
    1W        W55051  24.710   3.980   0.471  0.2199  0.0822 -0.2240
    1W        W55052   0.637   3.748   1.941  0.0071 -0.0090 -0.3744
    1W        W55053  11.381   5.087   9.135 -0.2943 -0.3045 -0.3930
    1W        W55054   5.436  20.959   5.564  0.0267  0.1379 -0.2159
    1W        W55055  11.610   2.903   1.972  0.0398 -0.1752 -0.0789
    1W        W55056  25.452  23.824   8.965 -0.2578  0.2716 -0.2726
    1W        W55057  24.122  21.402   0.791  0.0145 -0.4166 -0.5211
    1W        W55058  11.005  18.979   7.653  0.2845  0.1232  0.0031
    1W        W55059   2.655  25.524   5.701 -0.3786  0.1275  0.1889
    1W        W55060   6.094  21.169   9.172 -0.1529  0.0585  0.1308
    1W        W55061  14.551  18.891   0.682  0.0761 -0.2270 -0.1174
    1W        W55062  26.107   5.876   9.128 -0.1824  0.1035  0.3032
    1W        W55063   1.721  15.673   2.251  0.0983 -0.2770  0.1304
    1W        W55064  24.265  19.424   9.373  0.0865 -0.1595 -0.1226
    1W        W55065   3.870  22.280   6.004  0.0710  0.1886  0.1490
    1W        W55066  12.140   0.835   9.450  0.1999  0.0095 -0.0412
    1W        W55067   1.934   9.351   1.136  0.0522 -0.0797  0.0923
    1W        W55068  10.738  20.930   0.820 -0.1319  0.0694  0.0292
    1W        W55069   2.923  12.378   1.799 -0.1793 -0.1843  0.1324
    1W        W55070  11.844  25.921   2.441  0.1563 -0.0140  0.0956
    1W        W55071  13.301  21.745   5.283 -0.0106 -0.2515 -0.2022
    1W        W55072  20.842   2.085   1.592 -0.0682 -0.0460  0.3637
    1W        W55073  27.390  10.504   8.163 -0.1773 -0.2828  0.0364
    1W        W55074  19.400   5.991   0.715  0.1768  0.1813  0.1457
    1W        W55075   0.218   4.243   1.040  0.1199 -0.1987 -0.0880
    1W        W55076   5.372  14.733   2.181  0.1373 -0.0862 -0.0508
    1W        W55077  27.357  23.958   0.082 -0.2469  0.0730 -0.1670
    1W        W55078   3.381  13.801   1.693  0.1031 -0.1747 -0.0417
    1W        W55079  23.225  16.289   6.843  0.1501 -0.0276  0.3172
    1W        W55080  17.600  25.612   0.836 -0.0128  0.2354  0.1172
    1W        W55081  22.041  27.105   1.157 -0.2726 -0.0495  0.2848
    1W        W55082   3.500   1.554   8.931 -0.3185  0.3948  0.0618
    1W        W55083  12.897   0.492   2.515  0.0359 -0.3662 -0.0982
    1W        W55084  10.256   3.953   2.742 -0.0156 -0.5515 -0.3153
    1W        W55085   1.970   9.211   6.226 -0.1015  0.2516 -0.0452
    1W        W55086   0.954   7.345   0.828  0.2886 -0.3417 -0.1024
    1W        W55087  22.144  26.511   2.695  0.1333 -0.0871 -0.1018
    1W        W55088  16.234   5.016   8.136  0.1609  0.2133 -0.0163
    1W        W55089   1.378  17.771   8.950 -0.1023 -0.1821  0.0741
    1W        W55090  26.146  26.036   8.422  0.2463 -0.1301  0.2099
    1W        W55091  11.379  13.206   1.942  0.1580  0.0657  0.2873
    1W        W55092   1.707   9.959   2.804  0.2204 -0.1892 -0.2569
    1W        W55093   4.798  22.239   9.462 -0.0606  0.3093 -0.0518
    1W        W55094  28.198  29.473   6.933 -0.0129 -0.1763  0.2144
    1W        W55095   2.834  25.031   5.620  0.1626 -0.2792 -0.0237
    1W        W55096  10.826   0.623   7.698  0.1439  0.0961 -0.1327
    1W        W55097  17.547  16.958   8.817  0.1678  0.0611  0.3628
    1W        W55098  10.468  23.270   0.280  0.0517 -0.0429  0.0017
    1W        W55099  19.059  23.169   7.841 -0.1842 -0.3422 -0.0618
    1W        W55100  16.842   2.006   7.823  0.0846 -0.1518  0.1323
    1W        W55101  25.144  26.798   1.540  0.0159 -0.1753 -0.1464
    1W        W55102  29.384  29.740   1.315 -0.2511  0.1516 -0.0947
    1W        W55103   8.124  15.306   8.015  0.2511  0.0699 -0.0273
    1W        W55104  23.934  12.687   9.049 -0.1031 -0.2162  0.0249
    1W        W55105  27.208   2.435   8.586  0.0507 -0.1116 -0.2520
    1W        W55106  24.906   8.244   8.399  0.1013  0.2047 -0.0568
    1W        W55107  24.896   0.863   2.276  0.0320 -0.2715  0.0821
    1W        W55108  22.091  29.121   3.292 -0.5118 -0.0250 -0.0835
    1W        W55109   1.676  27.127   1.847 -0.0507 -0.0772 -0.0485
    1W        W55110  23.740   4.618   0.825 -0.0122 -0.0332 -0.1057
    1W        W55111   9.330   8.065   7.707  0.1992 -0.1036 -0.0428
    1W        W55112   2.791  12.065   6.712  0.1260 -0.0207 -0.1873
    1W        W55113  20.846  28.015   7.455 -0.1472  0.0073  0.0905
    1W        W55114  25.483  12.304   9.450  0.2763  0.0381  0.0301
    1W        W55115   7.022   1.339   2.855  0.0488 -0.0969 -0.0056
    1W        W55116  12.613  18.272   0.058  0.0382  0.2581 -0.2294
    1W        W55117   6.538  21.189   9.411 -0.2223 -0.2616  0.2757
    1W        W55118  28.413  23.225   6.984  0.2383  0.1090 -0.0657
    1W        W55119   6.500   7.400   3.136 -0.0012  0.0349 -0.0908
    1W        W55120  13.742  22.273   0.617 -0.1154  0.0987 -0.0154
    1W        W55121   4.107   9.625   6.858  0.1361  0.1826  0.2959
    1W        W55122  14.137   7.364   2.419  0.0569  0.0259  0.1946
    1W        W55123  28.286   9.215   1.866 -0.3517  0.0132 -0.1138
    1W        W55124  14.897   0.123   7.529 -0.0332 -0.0731 -0.4524
    1W        W55125  16.830  19.177   8.422  0.0403 -0.2665  0.2439
    1W        W55126  23.095  28.203   2.035 -0.1102  0.0077  0.2310
    1W        W55127   0.388  16.895   2.462  0.0365 -0.1170  0.1796
    1W        W55128   9.842   9.740   8.441 -0.0891  0.3371 -0.1876
    1W        W55129  16.603  21.071   6.578  0.2331  0.1356 -0.0248
    1W        W55130  10.080   4.851   8.098 -0.0357  0.0248  0.4406
    1W        W55131  21.547  17.404   1.327 -0.1380 -0.2026 -0.0732
    1W        W55132  26.971  15.378   2.616  0.1259 -0.3484 -0.1524
    1W        W55133   0.275  16.470   9.262 -0.0986 -0.0348 -0.2428
    1W        W55134  28.824  18.357   1.714  0.4670  0.1997 -0.1161
    1W        W55135  27.883  28.188   6.760 -0.0392 -0.1773 -0.2033
    1W        W55136  25.543   5.434   1.118 -0.0824  0.1906 -0.1499
    1W        W55137  19.650   3.474   7.442  0.2549  0.1401 -0.2143
    1W        W55138   9.984  26.939   1.629 -0.1119 -0.0146 -0.1722
    1W        W55139   5.604   7.188   8.412  0.2376  0.0952  0.0368
    1W        W55140  16.159  22.412   5.558  0.0824 -0.1198 -0.2575
    1W        W55141  26.895  12.952   8.108  0.0879 -0.2207  0.1856
    1W        W55142  17.410   0.907   3.264  0.0308  0.0748 -0.2875
    1W        W55143   9.679  20.740   8.004  0.0165  0.1068 -0.0210
    1W        W55144   4.268  17.301   7.780 -0.1370  0.1331  0.1702
    1W        W55145  11.746  16.446   7.538  0.0795  0.0238  0.2825
    1W        W55146   2.460  14.394   6.718  0.1043 -0.0476  0.0848
    1W        W55147   3.079  29.710   1.226  0.1032  0.2856 -0.1670
    1W        W55148  11.470   6.033   7.980  0.3335 -0.1486 -0.3281
    1W        W55149  24.528   9.987   8.576  0.2906  0.0824  0.2234
    1W        W55150  27.147  29.602   8.495  0.0290  0.1256  0.0685
    1W        W55151  12.882  25.153   1.689  0.3448 -0.0983 -0.0616
    1W        W55152  10.539   2.371   0.377 -0.0448 -0.2741  0.1686
    1W        W55153  17.542  26.468   1.691 -0.0948 -0.1684  0.1266
    1W        W55154  23.854  19.645   7.058 -0.2450 -0.0044  0.0964
    1W        W55155   7.165  29.798   8.765  0.0038 -0.2756 -0.1719
    1W        W55156  22.667   2.449   1.228 -0.2459 -0.4062  0.2366
    1W        W55157  16.884  20.793   9.520  0.0196 -0.0849  0.0252
    1W        W55158   4.649  19.303   2.176 -0.0018  0.1220  0.1902
    1W        W55159   1.613  20.832   0.200 -0.2286 -0.0567 -0.0870
    1W        W55160  28.169   6.355   0.569  0.0911  0.0765 -0.2190
    1W        W55161  24.127   7.461   1.129  0.0285 -0.0141  0.2795
    1W        W55162  28.368   4.469   1.394 -0.2691 -0.1314 -0.0436
    1W        W55163   9.995  19.379   6.010 -0.0643 -0.1554  0.0579
    1W        W55164   1.942  10.047   7.850 -0.2908  0.1014  0.0072
    1W        W55165  18.331  26.136   0.774  0.2393  0.1503  0.1568
    1W        W55166  28.650  29.845   1.797  0.0549 -0.1166  0.0127
    1W        W55167  18.224  11.669   2.482  0.0479 -0.0063  0.1586
    1W        W55168  10.245  11.669   0.707  0.1753 -0.1256  0.1427
    1W        W55169   7.890   0.801   0.046  0.1611 -0.3243 -0.0613
    1W        W55170  17.051   6.172   3.436 -0.0881  0.1280  0.0366
    1W        W55171  21.715  15.369   8.255 -0.1147 -0.0439 -0.0357
    1W        W55172   8.627  22.538   6.633 -0.1107  0.1146 -0.0951
    1W        W55173   6.470   2.465   0.494  0.0004  0.0793  0.1786
    1W        W55174   3.382  11.068   8.403 -0.2012  0.0255 -0.0301
    1W        W55175  13.451   2.800   7.993  0.2471  0.0025  0.0822
    1W        W55176   7.457  24.670   1.031 -0.1369 -0.0399  0.2271
    1W        W55177   4.500  18.447   6.105 -0.1834  0.0006 -0.2187
    1W        W55178  23.439   4.933   9.267 -0.0650  0.1089 -0.0364
    1W        W55179  26.953  24.776   9.350  0.3800 -0.0243  0.2207
    1W        W55180  16.896  18.224   8.499 -0.1464  0.0140 -0.0720
    1W        W55181  17.047   3.615   3.217 -0.0082  0.0377 -0.0895
    1W        W55182   3.319   8.823   2.623 -0.1713  0.1596  0.1300
    1W        W55183  24.196  23.389   7.144 -0.2573 -0.2976 -0.3223
    1W        W55184   6.038  29.738   0.052 -0.0071  0.1185 -0.1583
    1W        W55185  14.098  22.898   8.721 -0.0181 -0.0310  0.1616
    1W        W55186  18.658  29.836   1.777  0.0185 -0.2192  0.0822
    1W        W55187  24.764   0.488   1.496  0.0344 -0.4382  0.2712
    1W        W55188   9.290  19.581   8.612  0.3155 -0.1029  0.2074
    1W        W55189  18.028   3.474   9.293 -0.0270 -0.0326 -0.3514
    1W        W55190   6.100   0.552   5.872 -0.3528 -0.0904 -0.1344
    1W        W55191  19.901  14.634   8.063 -0.3422  0.0294 -0.0886
    1W        W55192  28.582  26.183   9.208  0.0100  0.2048 -0.3027
    1W        W55193  13.472   9.492   0.012 -0.2035 -0.1733  0.0716
    1W        W55194   9.278   9.721   7.210  0.3598  0.3274  0.0611
    1W        W55195   3.865  29.297   0.939  0.1651  0.1156  0.1368
    1W        W55196   7.288   9.180   1.489  0.0121 -0.0436  0.1798
    1W        W55197  10.650  28.318   0.920  0.3694  0.2977 -0.2243
    1W        W55198  13.152   3.119   3.987  0.0671 -0.0448 -0.0569
    1W        W55199  28.782  15.839   0.397 -0.1601 -0.0619  0.3302
    1W        W55200  11.156  13.395   5.880 -0.0634  0.0293 -0.0139
    1W        W55201  21.926   0.817   9.440 -0.2546  0.1342 -0.3191
    1W        W55202  21.715  12.680   8.865 -0.1984 -0.0943  0.4161
    1W        W55203  28.192  28.036   7.268  0.1165  0.0092  0.0534
    1W        W55204  22.926  27.725   1.844  0.2572 -0.0240  0.1685
    1W        W55205  15.537   4.104   3.510  0.2049 -0.1686  0.1920
    1W        W55206  11.456  29.457   8.087  0.0017 -0.1494 -0.1127
    1W        W55207  18.645   6.060   0.133 -0.1896  0.1937 -0.0785
    1W        W55208   5.117   3.474   8.482  0.1024  0.1097 -0.0221
    1W        W55209   5.390  27.678   6.672  0.0596 -0.1404  0.1160
    1W        W55210   9.888  23.667   0.882 -0.0668 -0.0567 -0.0195
    1W        W55211  17.754   7.828   2.146 -0.1829  0.1201  0.0048
    1W        W55212  28.907   0.724   1.695 -0.1061 -0.4266  0.1658
    1W        W55213   1.286   8.973   7.478 -0.1537 -0.2578 -0.0045
    1W        W55214  18.651  28.501   2.435 -0.4665  0.3646 -0.0055
    1W        W55215  12.193  18.176   6.128  0.1131  0.2871  0.0417
    1W        W55216  18.206  19.410   1.787 -0.0041 -0.0478  0.2060
    1W        W55217   7.670  26.886   9.404  0.0925  0.1032 -0.1644
    1W        W55218  21.850  25.821   7.806 -0.0027 -0.2151 -0.1994
    1W        W55219  28.851  18.190   7.449  0.0347 -0.0465  0.1420
    1W        W55220  25.541  15.679   1.353 -0.1534  0.1504 -0.0268
    1W        W55221   9.743  24.984   7.676  0.0494 -0.0887  0.3067
    1W        W55222  17.267  10.095   0.578 -0.2486 -0.1492  0.1204
    1W        W55223   0.546  26.211   0.491 -0.2675 -0.3340 -0.0085
    1W        W55224   3.035  13.767   7.413 -0.1756 -0.0154 -0.3041
    1W        W55225   7.047  26.536   0.267  0.1122  0.1988  0.0147
    1W        W55226  16.629  14.500   2.682 -0.0350 -0.0105  0.1705
    1W        W55227  11.290  17.687   1.079  0.1685 -0.3995  0.0082
    1W        W55228  16.163   4.514   1.057  0.1615 -0.2301  0.0349
    1W        W55229  24.510   2.297   1.394 -0.4288 -0.2267 -0.1371
    1W        W55230  11.089   4.792   8.710  0.0497 -0.2529 -0.0611
    1W        W55231   7.463   3.675   8.279  0.0739 -0.0526 -0.0225
    1W        W55232  11.688   7.050   2.007 -0.5191 -0.0648 -0.0168
    1W        W55233   9.691   5.453   3.284 -0.0774  0.2217 -0.1509
    1W        W55234  13.773   6.182   8.927  0.1043  0.3606 -0.0769
    1W        W55235   9.020  12.542   0.334 -0.0586  0.1639  0.5062
    1W        W55236  26.465  21.599   8.050 -0.2387 -0.0984  0.0787
    1W        W55237  26.383  14.226   1.346 -0.0748  0.2104  0.0376
    1W        W55238  12.944   0.672   8.370 -0.2822 -0.0085  0.0706
    1W        W55239   4.775   9.750   7.424 -0.2372  0.0402 -0.1106
    1W        W55240  12.594  28.208   2.410 -0.0800  0.4952  0.2992
    1W        W55241  10.401  22.557   8.292  0.3000 -0.3134  0.1691
    1W        W55242   6.401  11.933   0.838  0.1208 -0.2349  0.0985
    1W        W55243  12.286  13.723   6.258  0.2887  0.0709  0.0492
    1W        W55244   8.711  18.790   7.949  0.0220 -0.0640  0.2303
    1W        W55245  25.461  17.199   1.303  0.2467 -0.1742  0.3005
    1W        W55246  29.511  19.523   6.622 -0.0302 -0.1255  0.1828
    1W        W55247  24.895  24.704   8.729 -0.0631 -0.1857 -0.3032
    1W        W55248  24.797  12.786   8.972 -0.1577  0.3538 -0.0648
    1W        W55249  13.981  22.803   7.634 -0.3897  0.0971 -0.0188
    1W        W55250   3.991  24.978   8.019  0.1979 -0.1353  0.1315
    1W        W55251  23.750  19.451   0.634  0.1280  0.2386 -0.0865
    1W        W55252  10.057   7.528   1.013 -0.2703  0.0433 -0.0270
    1W        W55253  12.513  16.661   0.419 -0.1017  0.0118 -0.0048
    1W        W55254  26.690  24.563   8.316  0.2249  0.1221  0.2530
    1W        W55255   3.550  19.037   0.302  0.0746  0.1228  0.0112
    1W        W55256  18.262  25.649   6.575  0.1863  0.0338  0.1251
    1W        W55257  10.461  11.553   9.014 -0.0864 -0.0554 -0.0153
    1W        W55258  11.302   2.059   3.740 -0.1514  0.0587 -0.0352
    1W        W55259  28.028   7.002   9.499  0.0139  0.1913 -0.0599
    1W        W55260  13.346  24.371   1.475  0.1328  0.1535  0.0614
    1W        W55261   6.766  10.667   9.111 -0.2845 -0.0035 -0.1071
    1W        W55262  24.593  27.071   7.768  0.0186 -0.1139 -0.1684
    1W        W55263  25.777   5.084   8.229  0.0762 -0.1417  0.2459
    1W        W55264   2.088  25.133   8.508 -0.3014 -0.0520  0.0323
    1W        W55265  27.754  22.102   1.782  0.1278  0.2406  0.3391
    1W        W55266  29.047  12.929   0.261 -0.2069 -0.1947 -0.1545
    1W        W55267  13.825  19.862   8.325  0.0094  0.1155 -0.0074
    1W        W55268  11.239   2.776   0.160 -0.0928 -0.1624 -0.2485
    1W        W55269   0.685  19.116   8.496 -0.5024 -0.0115  0.3979
    1W        W55270  25.140   6.565   2.518 -0.3444 -0.3127 -0.0359
    1W        W55271   5.953  10.512   8.804  0.1978 -0.0797 -0.0527
    1W        W55272  21.890   2.222   9.044  0.0840  0.1265  0.2225
    1W        W55273  16.100   3.816   1.691  0.3307  0.0226  0.2685
    1W        W55274  16.491  20.288   2.091  0.1680 -0.1250 -0.2065
    1W        W55275  22.128   3.196   0.916  0.0046 -0.0112  0.0751
    1W        W55276   0.750  21.081   8.231 -0.2438  0.1946 -0.0362
    1W        W55277   8.522  27.997   7.152 -0.2617  0.1340 -0.2212
    1W        W55278  17.038  29.176   7.916  0.1143  0.3840 -0.1185
    1W        W55279  11.728   1.606   2.620  0.1532  0.2292  0.1219
    1W        W55280  21.819  21.300   8.730 -0.1466 -0.1485  0.0894
    1W        W55281  18.572  13.970   9.429  0.0829 -0.1647 -0.2834
    1W        W55282  19.068   6.869   2.440  0.0955 -0.0826 -0.0665
    1W        W55283   4.233  18.271   0.053 -0.2725 -0.0444  0.1435
    1W        W55284   5.899   1.162   7.206  0.0821  0.0339 -0.1738
    1W        W55285  15.440  11.796   8.270 -0.2105 -0.1265  0.0910
    1W        W55286  14.642  26.742   6.827 -0.1539 -0.0913 -0.2306
    1W        W55287  29.751  16.599   8.258 -0.0174  0.2402 -0.0676
    1W        W55288  24.615   5.314   8.748  0.0223 -0.0381  0.0470
    1W        W55289   2.535  20.053   1.370  0.0113 -0.0917 -0.2581
    1W        W55290  12.251   7.846   8.803 -0.2075 -0.0443 -0.1285
    1W        W55291   4.077  18.578   6.384 -0.1932  0.0192 -0.2239
    1W        W55292  12.257  28.192   6.227  0.0358 -0.0406 -0.2741
    1W        W55293  23.830  28.919   8.099 -0.0132 -0.1608  0.0121
    1W        W55294   1.078  13.274   8.423 -0.1043  0.0862 -0.1070
    1W        W55295   3.746  17.901   8.667  0.1679  0.2840 -0.0061
    1W        W55296  20.922   0.416   0.079 -0.0653 -0.0033 -0.4544
    1W        W55297  13.760  22.994   6.834  0.0392  0.2533  0.1278
    1W        W55298  12.571  24.979   2.604 -0.3531  0.2174 -0.0674
    1W        W55299  14.169   9.462   8.968  0.1373 -0.2575 -0.4835
    1W        W55300  12.652   8.759   3.485  0.0863 -0.0457  0.1088
    1W        W55301   8.904   4.576   0.515  0.3483 -0.0810  0.0480
    1W        W55302  10.393  17.977   9.180  0.0099 -0.0336 -0.0924
    1W        W55303   0.073  29.302   8.282 -0.1272  0.0248 -0.4540
    1W        W55304   3.896  23.795   7.540 -0.0960 -0.0602 -0.2461
    1W        W55305   8.575  12.669   7.780 -0.1500  0.0049  0.1397
    1W        W55306  24.901   6.434   0.625 -0.0349 -0.2612  0.1172
    1W        W55307   8.914   7.654   8.527  0.3169  0.3017  0.0284
    1W        W55308  19.341   6.607   2.789 -0.0788  0.2134 -0.0068
    1W        W55309   7.217   2.503   2.835  0.0240 -0.1926 -0.0955
    1W        W55310   8.663   3.395   1.755 -0.2828 -0.2120 -0.0257
    1W        W55311   6.615   4.652   6.642  0.2312 -0.0416 -0.1458
    1W        W55312  25.509  29.802   1.441  0.0658  0.3385  0.1891
    1W        W55313  15.993  20.149   0.801 -0.0415  0.0720  0.0509
    1W        W55314  24.418  15.075   1.487 -0.0959 -0.4450  0.2522
    1W        W55315  18.401  15.176   9.436 -0.0052 -0.2201  0.0383
    1W        W55316   5.703  15.162   8.628  0.2772  0.1279  0.0156
    1W        W55317   1.505  12.409   9.173  0.1105 -0.2858 -0.0438
    1W        W55318  21.628  28.727   0.034  0.1837 -0.2162 -0.1158
    1W        W55319  23.564  18.339   7.592 -0.0261  0.0164  0.1436
    1W        W55320   3.567   7.344   1.064  0.2695  0.1770 -0.0553
    1W        W55321  19.449   7.636   1.657  0.0546  0.2935 -0.1795
    1W        W55322  20.811  22.101   1.871  0.1793 -0.0561  0.0260
    1W        W55323  19.632  25.200   2.284  0.1774 -0.1336 -0.2770
    1W        W55324  11.798  11.384   8.804  0.1331  0.1092  0.4121
    1W        W55325   2.402  28.861   7.954  0.0651  0.0030  0.2127
    1W        W55326  21.745  15.380   7.677 -0.2826 -0.0387 -0.0107
    1W        W55327  18.063  21.646   6.537  0.0605 -0.2422 -0.1893
    1W        W55328  13.694   8.163   8.634  0.0345  0.1110 -0.3840
    1W        W55329   2.478   2.514   7.459  0.0912 -0.2008  0.0631
    1W        W55330   0.889   8.454   9.369 -0.2440 -0.0129 -0.0532
    1W        W55331  17.687  22.612   9.305  0.0910 -0.0249  0.0534
    1W        W55332   7.784   1.870   2.252  0.1402 -0.1920  0.2158
    1W        W55333  20.853  28.752   8.294 -0.2162 -0.1584  0.0082
    1W        W55334  13.828   6.302   8.044  0.0634 -0.3900 -0.3772
    1W        W55335  19.482   3.174   8.356  0.0615 -0.2130 -0.0370
    1W        W55336  17.769   7.454   1.118  0.0155  0.0164 -0.0907
    1W        W55337  13.252  20.245   5.654 -0.0267  0.3019 -0.2081
    1W        W55338  18.236  22.533   9.389 -0.2626 -0.0487 -0.1400
    1W        W55339  23.579   5.433   0.657 -0.0348 -0.0820 -0.1089
    1W        W55340  15.592  22.503   7.455 -0.1354 -0.0056  0.1565
    1W        W55341   6.009  23.542   0.284  0.2142  0.1309  0.1351
    1W        W55342  10.187   1.262   3.548  0.2744  0.2458 -0.0190
    1W        W55343  10.522  14.837   7.116 -0.2006 -0.0668  0.0036
    1W        W55344  10.618   0.163   0.980  0.2164 -0.1519  0.0485
    1W        W55345  18.313   4.338   2.530  0.1240 -0.0631 -0.0126
    1W        W55346  23.289  16.763   6.339  0.0751  0.0317  0.1164
    1W        W55347   5.514   9.444   0.820 -0.1217 -0.0865  0.1318
    1W        W55348  19.813  29.599   2.528 -0.0227 -0.0988 -0.3519
    1W        W55349   7.175  26.234   8.904 -0.2226 -0.2366  0.2327
    1W        W55350  26.461   4.024   2.211  0.0278  0.1632  0.0908
    1W        W55351  13.106   0.258   2.005 -0.1773 -0.1284  0.0097
    1W        W55352  11.553  27.154   2.010 -0.1029  0.0863  0.0136
    1W        W55353  10.985  21.788   6.853  0.4814  0.1244  0.0936
    1W        W55354   6.822   6.016   9.042  0.0373  0.0032 -0.0384
    1W        W55355  10.878  19.867   7.290 -0.2539 -0.2439  0.0245
    1W        W55356  10.475   1.573   9.422 -0.3107 -0.3193 -0.1691
    1W        W55357  27.502  11.027   8.091  0.3080  0.0456  0.1575
    1W        W55358   6.070  21.959   8.976 -0.0250  0.4483  0.1153
    1W        W55359  20.377   4.863   8.070  0.0689 -0.1039 -0.2024
    1W        W55360  19.568  21.757   0.726  0.1231 -0.1143 -0.1522
    1W        W55361  27.077  28.800   6.595  0.0989  0.0859 -0.0858
    1W        W55362  27.573   4.385   0.623 -0.0839 -0.1448  0.2593
    1W        W55363  16.552  28.263   2.547 -0.1822  0.1473 -0.0424
    1W        W55364   6.904  21.705   0.367 -0.2913 -0.1618  0.1356
    1W        W55365   9.978  18.487   8.038 -0.1396  0.0422 -0.0690
    1W        W55366  18.020  28.024   0.396  0.3177  0.0733 -0.0845
    1W        W55367   3.070   8.482   1.204  0.1366  0.3163  0.1663
    1W        W55368  29.651  21.519   0.602 -0.3217  0.0401  0.2952
    1W        W55369  12.246  12.322   9.196  0.0695 -0.1098  0.0382
    1W        W55370  18.225  16.962   6.197  0.4805  0.3043  0.0570
    1W        W55371  10.900  23.675   6.820  0.1576  0.1047 -0.0069
    1W        W55372  27.323  20.739   2.764 -0.0382 -0.1490 -0.2277
    1W        W55373  20.319   0.282   1.268  0.0677  0.2406  0.3141
    1W        W55374  19.672  19.431   8.388  0.2325 -0.1409  0.2136
    1W        W55375   8.714  13.119   6.653 -0.1476 -0.4390 -0.2895
    1W        W55376  19.426   1.979   1.206 -0.1296  0.0128  0.1125
    1W        W55377  17.023  20.504   7.289  0.0557 -0.0384 -0.2829
    1W        W55378  28.408  15.206   1.632  0.1191  0.1045  0.1238
    1W        W55379  27.911  20.456   0.567  0.2290  0.5469 -0.1157
    1W        W55380  20.971  21.246   9.046  0.1010 -0.3365 -0.0834
    1W        W55381  14.314  15.525   0.198 -0.0280 -0.0123 -0.0126
    1W        W55382  14.008   2.633   0.775  0.1158  0.2455 -0.2132
    1W        W55383  17.111  26.084   7.436  0.0190  0.0637  0.0897
    1W        W55384   4.866  18.167   8.217 -0.2047  0.0662  0.2927
    1W        W55385  16.815  10.936   1.262  0.0388 -0.1921  0.1205
    1W        W55386  12.758  13.519   2.030  0.0619 -0.0237 -0.0206
    1W        W55387   7.274   1.685   6.824  0.2422  0.0539 -0.0194
    1W        W55388   7.840  24.910   1.296 -0.0465 -0.1570  0.0730
    1W        W55389  27.601  29.768   1.373  0.0690  0.1674 -0.2421
    1W        W55390  23.048  27.587   6.399  0.1126  0.1368 -0.1956
    1W        W55391   9.069  14.630   6.043 -0.0023 -0.0936 -0.1147
    1W        W55392  28.002  17.990   7.846 -0.0310  0.0392 -0.0439
    1W        W55393  24.358  24.056   2.771 -0.0372  0.1294 -0.0843
    1W        W55394  27.388   5.371   2.964  0.0859 -0.2919 -0.5001
    1W        W55395   3.247   7.240   8.340 -0.1452  0.1843  0.1575
    1W        W55396  17.899  15.346   8.452  0.1375 -0.1423  0.2163
    1W        W55397  16.960  28.320   2.229  0.3071 -0.0639 -0.1433
    1W        W55398   9.037  24.908   1.576 -0.0609  0.1715 -0.0507
    1W        W55399   1.204  21.850   2.136 -0.1034  0.1605 -0.0038
    1W        W55400   6.393  10.518   6.376  0.1691  0.0607  0.0454
    1W        W55401   3.875  25.351   5.597  0.0902  0.2297  0.2604
    1W        W55402  26.761  11.268   1.663 -0.3206 -0.0708  0.3697
    1W        W55403  27.973   8.161   2.676  0.1704 -0.0052 -0.0779
    1W        W55404  10.693  23.073   7.582 -0.2985  0.0945  0.1715
    1W        W55405  27.530   4.826   2.856  0.2293 -0.0316 -0.1034
    1W        W55406  26.037  19.229   8.003  0.0016  0.1919  0.5633
    1W        W55407  10.770   4.067   1.333  0.0673  0.1040 -0.4686
    1W        W55408  25.302  21.386   1.751  0.2134  0.0937  0.2444
    1W        W55409  22.856   0.192   0.459 -0.0124 -0.2527 -0.2666
    1W        W55410  13.273   4.416   0.708  0.1459  0.0191 -0.2824
    1W        W55411  28.149   4.601   3.043 -0.0170  0.1075 -0.0547
    1W        W55412  25.798   9.344   1.351  0.0721 -0.0963  0.0557
    1W        W55413  24.674   7.264   2.762  0.0351  0.3047  0.1839
    1W        W55414   6.230  24.940   0.592  0.0141 -0.1550  0.5394
    1W        W55415  19.499  21.370   0.053  0.1231  0.1697 -0.2648
    1W        W55416  27.767   3.251   3.325  0.0572  0.1318  0.1902
    1W        W55417  25.901  25.006   8.788 -0.0901  0.0056 -0.2292
    1W        W55418   1.098  13.290   9.368 -0.0606  0.2162 -0.1169
    1W        W55419   8.234  26.454   7.259  0.0692  0.0501  0.3360
    1W        W55420   4.608   1.873   9.141  0.1642 -0.2147 -0.0621
    1W        W55421  25.737  27.750   8.231 -0.1886  0.1507 -0.1787
    1W        W55422  25.135  13.285   1.602 -0.0155 -0.0269 -0.0444
    1W        W55423   1.464  27.178   0.768  0.0688 -0.2881  0.1328
    1W        W55424  16.035  28.927   9.185  0.0282 -0.1079  0.1437
    1W        W55425   0.858  25.960   0.822 -0.0905  0.3688  0.2264
    1W        W55426   7.358  13.944   0.277 -0.1092 -0.1760  0.3166
    1W        W55427  18.523  28.928   2.728  0.3692 -0.0209  0.0144
    1W        W55428  26.351  25.005   2.796  0.2680 -0.0035 -0.0553
    1W        W55429   7.754   0.151   6.376  0.1219 -0.0642  0.2027
    1W        W55430  24.098   4.606   0.475  0.0512 -0.0197 -0.2234
    1W        W55431  25.687  16.830   2.814 -0.2260  0.0318 -0.4479
    1W        W55432  26.457   1.436   1.330  0.1080  0.1084  0.2071
    1W        W55433  22.355  29.445   2.923  0.0853 -0.0586  0.3462
    1W        W55434   9.430  17.260   2.054 -0.1731  0.0767  0.2443
    1W        W55435  28.094   2.903   1.483  0.0155  0.0451 -0.1518
    1W        W55436  25.903  12.214   0.809  0.2681  0.1597  0.0888
    1W        W55437   8.483   5.331   2.347 -0.0122  0.1241 -0.1921
    1W        W55438  14.096  15.897   7.726  0.1357 -0.1615 -0.4121
    1W        W55439   8.756  26.180   7.995  0.2116 -0.2908  0.1967
    1W        W55440  18.324  10.176   9.135 -0.0138  0.0823 -0.0563
    1W        W55441  27.969   3.169   7.737  0.2888  0.1434 -0.3102
    1W        W55442  14.709  15.229   7.936 -0.2866 -0.0256  0.1781
    1W        W55443  16.032  24.440   7.621 -0.0135 -0.2663 -0.2242
    1W        W55444   5.740  23.542   7.538 -0.0990 -0.0030  0.1594
    1W        W55445  27.665   2.775   7.908 -0.1559 -0.3336  0.1349
    1W        W55446  26.639  10.174   0.423 -0.0050  0.1581  0.0885
    1W        W55447   1.266  12.705   0.476 -0.3369  0.0931  0.1274
    1W        W55448  18.487  29.101   0.038  0.2170 -0.0049 -0.5863
    1W        W55449   1.751  23.617   8.420 -0.2471  0.0154  0.0962
    1W        W55450  10.171   1.451   8.827  0.0014  0.1125 -0.1258
    1W        W55451  25.097  25.148   8.505  0.1847 -0.3576 -0.2032
    1W        W55452   7.045   4.753   8.961 -0.1065 -0.0279 -0.0261
    1W        W55453  24.134   1.935   7.889  0.1848 -0.0061 -0.0558
    1W        W55454  28.106  23.241   2.511  0.0640 -0.0927 -0.1744
    1W        W55455   3.442  12.855   1.403  0.0729 -0.0407  0.3019
    1W        W55456   5.935   4.647   8.124 -0.0432 -0.3673  0.1138
    1W        W55457   0.897   5.160   7.055  0.0418  0.0415 -0.1472
    1W        W55458  20.386   0.940   2.737 -0.3207  0.1081  0.0654
    1W        W55459  12.732  12.201   2.293 -0.2779 -0.3348  0.1888
    1W        W55460   4.853  10.061   7.948 -0.0592  0.1083  0.0378
    1W        W55461  11.815   7.133   0.559  0.0003  0.0014  0.0661
    1W        W55462   5.185  15.615   5.918 -0.0670 -0.2295  0.0206
    1W        W55463   1.351  19.334   7.080  0.2044  0.0519 -0.2283
    1W        W55464   9.284  21.804   7.354 -0.1885 -0.1916  0.1990
    1W        W55465   7.906  15.146   7.179  0.1325 -0.2636  0.0567
    1W        W55466  21.509  10.283   0.375 -0.3768  0.0940 -0.0656
    1W        W55467  11.609  15.880   0.415 -0.1018  0.1459 -0.1191
    1W        W55468  29.361   1.991   7.025 -0.0337 -0.0095  0.1044
    1W        W55469  11.431  14.758   7.514 -0.0113 -0.1472 -0.1112
    1W        W55470  15.312   6.087   0.946 -0.4062  0.0990  0.0987
    1W        W55471  10.946   5.876   0.688 -0.2222 -0.0941 -0.1330
    1W        W55472  23.566  21.524   2.852  0.1072  0.0915  0.1321
    1W        W55473  13.619   1.569   1.542  0.0245 -0.1922  0.1058
    1W        W55474  18.861  17.387   6.360  0.1143 -0.0049  0.1645
    1W        W55475  22.634   5.591   4.244  0.1885  0.3454  0.1325
    1W        W55476  19.051  13.877   0.087 -0.0487 -0.1948 -0.0750
    1W        W55477  28.143  19.288   2.773 -0.1684  0.1265 -0.0594
    1W        W55478  28.246  17.784   9.459  0.1667 -0.1192 -0.2038
    1W        W55479  25.967  29.613   7.604  0.0863 -0.2129 -0.1801
    1W        W55480  12.215  17.023   6.381  0.2186  0.2154  0.0851
    1W        W55481  17.737  11.852   1.763  0.2109 -0.0926  0.0835
    1W        W55482   4.444   9.645   8.272  0.1027 -0.0126 -0.0962
    1W        W55483   7.777  13.096   6.654  0.3541 -0.1055  0.2708
    1W        W55484  21.012  20.946   1.482 -0.1011  0.0251 -0.0935
    1W        W55485  28.714  26.298   7.986  0.1380 -0.3130 -0.1864
    1W        W55486  26.561  19.266   0.667 -0.3163  0.0254 -0.1391
    1W        W55487   6.479  19.519   6.216  0.1564 -0.0753 -0.0554
    1W        W55488  26.248  10.191   9.518  0.1108 -0.1762 -0.3902
    1W        W55489   1.248  17.320   7.542  0.0570 -0.1550 -0.1365
    1W        W55490  28.979  22.425   1.335  0.0316  0.1289 -0.0810
    1W        W55491  13.927  21.906   5.915  0.0463  0.1121  0.1106
    1W        W55492  13.540   8.212   0.652 -0.1018  0.1892  0.0765
    1W        W55493  14.739  18.004   0.606  0.0212 -0.2168 -0.0245
    1W        W55494  24.648   0.710   0.707  0.2288 -0.2947 -0.0408
    1W        W55495  29.483  27.274   0.919  0.4580 -0.0315  0.3205
    1W        W55496   7.738   2.674   7.077  0.2149  0.1836  0.1023
    1W        W55497  23.090  22.389   9.197 -0.0790 -0.2445 -0.0493
    1W        W55498  13.148  10.973   1.816 -0.0273 -0.1972  0.0213
    1W        W55499  21.056  26.404   6.366 -0.0887 -0.0735  0.4712
    1W        W55500  23.528  28.624   2.809  0.3147  0.2790 -0.2549
    1W        W55501  24.250  29.761   0.739 -0.2269  0.0018  0.1400
    1W        W55502  18.531   2.016   0.929 -0.0541  0.2022  0.2230
    1W        W55503   5.271  18.748   2.712 -0.0147  0.2825 -0.0806
    1W        W55504  22.815  15.750   8.318  0.2927 -0.1630  0.0425
    1W        W55505  23.839  19.896   8.037 -0.1347 -0.0438  0.4032
    1W        W55506  24.675   3.594   7.560  0.0544 -0.2158  0.4104
    1W        W55507  18.433  13.225   6.798  0.1243 -0.3699 -0.0571
    1W        W55508  18.961   7.472   1.599  0.0700  0.0564 -0.2031
    1W        W55509  11.494  28.661   2.904 -0.1496 -0.1202 -0.1048
    1W        W55510  24.801  20.324   7.808  0.1091 -0.0722 -0.1568
    1W        W55511  11.292   4.636   9.338 -0.0321 -0.0236  0.0305
    1W        W55512   4.983  10.104   0.109 -0.1056  0.2252 -0.0976
    1W        W55513  27.868  21.240   2.243  0.0260  0.2211  0.2077
    1W        W55514  21.074   6.193   1.358 -0.1964  0.0522 -0.1337
    1W        W55515  27.469   1.868   8.439  0.0963  0.1483 -0.0936
    1W        W55516  16.596  28.494   3.008  0.0710  0.0868 -0.0207
    1W        W55517  27.561   9.022   8.604  0.4352  0.0530  0.0982
    1W        W55518   2.295  13.053   7.079  0.0820 -0.1686 -0.0678
    1W        W55519   3.670   4.497   2.252  0.1411  0.0928  0.0597
    1W        W55520   9.770  27.201   1.299  0.1182 -0.1075  0.1641
    1W        W55521   3.268   2.131   7.125 -0.1736 -0.0987 -0.0998
    1W        W55522   9.533  19.162   8.874  0.0977 -0.1310 -0.0534
    1W        W55523  27.556  20.274   0.227 -0.0330  0.1760  0.3775
    1W        W55524  23.709  23.820   0.824 -0.2287  0.0311  0.0655
    1W        W55525   6.286  23.840   7.443  0.0362 -0.2354  0.1217
    1W        W55526  16.619  28.023   0.642  0.0841 -0.1906 -0.0596
    1W        W55527  17.003  23.809   8.431  0.0258 -0.2639 -0.0877
    1W        W55528  11.052  14.424   2.388  0.0996  0.2640 -0.0586
    1W        W55529   6.717  14.109   8.156  0.0216 -0.0541 -0.0035
    1W        W55530   2.382   1.148   0.709 -0.0931  0.0454 -0.0654
    1W        W55531  26.704  16.537   9.054 -0.3071 -0.0437  0.2948
    1W        W55532  29.343   9.969   0.429 -0.2506  0.2013 -0.2135
    1W        W55533   1.978  13.259   0.273 -0.1302 -0.1048  0.0045
    1W        W55534   4.164  27.617   1.623  0.3187  0.4637  0.1228
    1W        W55535   4.291  16.481   2.342 -0.1438  0.0816 -0.0321
    1W        W55536  20.957   1.813   2.401 -0.1064 -0.0666 -0.0246
    1W        W55537   8.420   0.271   7.842  0.0000 -0.0976  0.3461
    1W        W55538  22.195  19.477   7.454 -0.0347  0.0109  0.1165
    1W        W55539  13.603  12.806   0.635 -0.1908 -0.1443  0.3190
    1W        W55540  25.741  11.331   7.917  0.0337  0.3073  0.0265
    1W        W55541  22.719   6.337   3.509  0.1478  0.1355 -0.0945
    1W        W55542  16.395  27.346   8.758  0.1540  0.1783 -0.0490
    1W        W55543  22.920   7.072   3.333  0.0677  0.1530 -0.0347
    1W        W55544  14.013  16.219   1.719  0.1312 -0.0537  0.1174
    1W        W55545  16.564   2.149   0.570  0.1749  0.1314  0.0242
    1W        W55546  18.541  20.485   7.046 -0.0327  0.1945 -0.0972
    1W        W55547  16.672  29.500   1.371  0.0821 -0.0155  0.1044
    1W        W55548   6.042   5.772   0.056  0.1867  0.1864  0.0449
    1W        W55549  22.164   6.474   9.528  0.0716 -0.1469 -0.2660
    1W        W55550   2.997   3.953   3.186  0.3475  0.0735  0.0863
    1W        W55551  23.324   4.434   2.622 -0.0422 -0.0376 -0.4481
    1W        W55552  16.957   5.510   1.308 -0.1628  0.0576  0.0212
    1W        W55553  13.034   4.827   7.570  0.1724  0.0405 -0.0860
    1W        W55554  10.674  18.417   6.786 -0.2194 -0.3533  0.2101
    1W        W55555  21.372   6.903   0.813 -0.1887 -0.3686 -0.0313
    1W        W55556   6.496  10.910   7.519 -0.3316  0.0952  0.0166
    1W        W55557  19.849  14.005   8.816 -0.4027  0.1389 -0.1167
    1W        W55558  22.133   7.421   2.881  0.1498  0.1658 -0.0405
    1W        W55559  11.779  12.589   7.942 -0.0010  0.3888  0.1315
    1W        W55560  19.728   8.099   8.048 -0.0522  0.0130  0.0295
    1W        W55561   7.445   9.949   7.431  0.1614 -0.3651  0.1779
    1W        W55562   8.803   0.971   8.021  0.0456  0.0497  0.1064
    1W        W55563  14.764   0.407   7.938  0.2147 -0.0278  0.1836
    1W        W55564  13.036  16.020   6.212  0.1743  0.4028 -0.0493
    1W        W55565  25.771  29.819   8.535 -0.2587  0.0176 -0.0982
    1W        W55566   1.785   0.536   8.745 -0.0932  0.0180  0.3070
    1W        W55567  18.536  14.181   8.921  0.0019 -0.3058  0.1959
    1W        W55568  21.006  10.465   0.680 -0.2551  0.2787 -0.0955
    1W        W55569  25.326  15.800   0.479 -0.1313  0.0940  0.1539
    1W        W55570  10.936  25.547   7.105  0.1502 -0.1964  0.2585
    1W        W55571   5.101  14.371   3.119 -0.2273 -0.0941  0.0086
    1W        W55572   9.842   6.522   1.021 -0.1007 -0.1808  0.1680
    1W        W55573  10.970   3.050   1.495  0.1392 -0.0366  0.1908
    1W        W55574  19.729  11.123   0.242 -0.1435  0.0426 -0.1976
    1W        W55575   7.124  11.467   7.897 -0.3604 -0.2291 -0.1191
    1W        W55576   7.586  10.845   0.996  0.0795  0.0668 -0.0137
    1W        W55577  12.216  27.811   1.336  0.0582 -0.3872 -0.0863
    1W        W55578  25.737  29.733   2.650 -0.2491  0.1531 -0.1305
    1W        W55579  10.667   0.355   0.507 -0.0736  0.0588  0.3745
    1W        W55580  11.131  10.379   9.335 -0.2537 -0.2621 -0.0883
    1W        W55581   9.623  10.190   8.391 -0.1925 -0.0865  0.0522
    1W        W55582   1.023  27.084   1.088 -0.3045  0.0400  0.1436
    1W        W55583  18.934  26.653   9.405  0.2399  0.0121  0.0428
    1W        W55584  20.127   4.238   1.436  0.1535  0.1291  0.0495
    1W        W55585  28.390  19.390   7.361  0.2346 -0.0657  0.1793
    1W        W55586  11.558  13.711   8.787  0.3235  0.2981  0.2413
    1W        W55587  11.385  22.301   7.556  0.0534 -0.1613  0.1514
    1W        W55588  11.933  22.949   1.039  0.1437 -0.1550  0.1398
    1W        W55589  19.965  24.941   7.811  0.0356 -0.1581 -0.3608
    1W        W55590  14.981  14.163   1.970  0.0530  0.3131  0.1872
    1W        W55591   2.938  24.397   6.970 -0.2833  0.0149  0.0657
    1W        W55592  11.075  17.731   1.547  0.0241 -0.1669 -0.0310
    1W        W55593  24.488   4.333   0.708  0.0624 -0.2179 -0.0369
    1W        W55594  17.330  19.746   0.441 -0.1720  0.0121 -0.0556
    1W        W55595  21.025  22.449   7.015  0.1372  0.0462  0.4361
    1W        W55596  24.502  23.038   6.584  0.1492 -0.0631 -0.0222
    1W        W55597  19.577  24.914   5.912 -0.1604  0.1824 -0.2132
    1W        W55598  13.242  27.603   7.922 -0.4560 -0.0026  0.1095
    1W        W55599   8.413   2.189   0.536  0.0408 -0.2185  0.0963
    1W        W55600   6.985  15.915   6.473 -0.1516  0.1007 -0.1005
    1W        W55601   4.915  27.007   8.070 -0.1935 -0.0508  0.3644
    1W        W55602  28.390   3.730   2.310 -0.1004 -0.1124 -0.1434
    1W        W55603  16.787  28.705   9.448  0.0903 -0.1566  0.0758
    1W        W55604  22.901  28.046   9.067 -0.2717  0.3865 -0.0028
    1W        W55605   2.533  18.302   8.913  0.0572  0.2921 -0.0122
    1W        W55606  17.732   8.631   7.719  0.0922  0.0332 -0.2536
    1W        W55607  23.416  16.870   2.394 -0.2478 -0.0954 -0.4658
    1W        W55608  25.052   3.781   3.113 -0.2459 -0.0236 -0.1782
    1W        W55609  20.075  27.064   9.183  0.3235  0.0057  0.1766
    1W        W55610  18.906  16.859   0.850  0.1355 -0.0377 -0.1594
    1W        W55611   5.135  15.155   2.441  0.0494 -0.0451 -0.0258
    1W        W55612   5.358  20.565   7.492 -0.4114  0.1338 -0.0144
    1W        W55613   0.444  28.589   7.528 -0.1629 -0.1873  0.2842
    1W        W55614  24.288  21.167   7.504  0.1796 -0.0945  0.5365
    1W        W55615  22.321   4.686   8.467  0.1669  0.2318  0.0031
    1W        W55616  25.806  24.297   1.487 -0.2607 -0.0218  0.2475
    1W        W55617   8.470   5.780   0.913 -0.0478  0.2630 -0.1559
    1W        W55618  19.489  25.867   8.418 -0.1333 -0.1597  0.2082
    1W        W55619   1.999  14.588   9.276  0.2009 -0.1413 -0.1712
    1W        W55620  18.024  14.507   8.801 -0.2535 -0.0804 -0.2597
    1W        W55621  27.160  14.930   2.347  0.1820  0.0358  0.1724
    1W        W55622  27.662  23.527   2.592 -0.0313 -0.1627 -0.3168
    1W        W55623  26.716  21.351   1.903  0.0121 -0.3258 -0.0647
    1W        W55624  17.174   5.102   9.194  0.0110 -0.0811 -0.0597
    1W        W55625  21.817   9.413   8.228 -0.0662 -0.0462  0.0991
    1W        W55626   2.189   5.126   9.015 -0.1876 -0.1518  0.2364
    1W        W55627   8.936  26.599   7.700  0.0491  0.2414 -0.1752
    1W        W55628  26.268  16.549   9.285  0.1223 -0.0130  0.0815
    1W        W55629  22.909  25.443   0.744 -0.3880 -0.1294  0.0117
    1W        W55630  11.740   7.058   2.777 -0.0041 -0.0805  0.0782
    1W        W55631   3.089   5.043   8.326 -0.1651  0.0327  0.0099
    1W        W55632  13.148   2.903   8.557 -0.0354 -0.4184 -0.0213
    1W        W55633  17.152   6.175   2.340 -0.0029  0.0696 -0.0133
    1W        W55634   4.639  10.254   7.539  0.0445 -0.0798 -0.0397
    1W        W55635  23.095   4.028   9.518 -0.1724 -0.1089 -0.0174
    1W        W55636  18.050   2.200   0.883 -0.1301  0.2323  0.0875
    1W        W55637  20.335   7.388   8.128 -0.0091 -0.2211 -0.1383
    1W        W55638  23.311  28.183   0.985 -0.1784  0.1498  0.1666
    1W        W55639  16.380  25.180   7.109  0.2352  0.3441  0.0734
    1W        W55640   4.146   1.562   6.932 -0.2522  0.1454  0.1534
    1W        W55641   5.544  22.594   0.518  0.1045  0.0842  0.1637
    1W        W55642  21.732  27.268   2.975  0.0791 -0.1355  0.2651
    1W        W55643  23.879   3.308   3.197 -0.0692  0.2205  0.2102
    1W        W55644  22.412  24.423   7.023  0.0133 -0.1887 -0.1150
    1W        W55645  12.033  21.657   8.428  0.2165  0.0626 -0.0976
    1W        W55646  23.474  28.429   6.559 -0.0858  0.3052 -0.2176
    1W        W55647  26.462  10.166   7.283 -0.1582  0.0070 -0.2266
    1W        W55648  13.478  12.941   7.304 -0.1612  0.2608  0.1590
    1W        W55649  15.155  11.978   9.398 -0.0539  0.1698 -0.2642
    1W        W55650   2.792  15.343   1.216 -0.3352 -0.1424  0.0627
    1W        W55651  23.534  22.118   1.954 -0.1816  0.1693 -0.0343
    1W        W55652  23.480  20.502   1.463 -0.0723  0.0327  0.5084
    1W        W55653  21.570  19.383   0.674  0.1305 -0.0841  0.1511
    1W        W55654  29.221   5.543   2.447 -0.1603  0.2589 -0.3843
    1W        W55655  16.299  10.786   0.730 -0.0796  0.2851 -0.0917
    1W        W55656  11.930  16.082   6.341  0.0719 -0.0378  0.2554
    1W        W55657   4.118  13.257   1.932  0.1526 -0.1080  0.2642
    1W        W55658   1.600  10.797   9.233  0.0336 -0.0796 -0.0998
    1W        W55659  11.966   1.556   7.729  0.1428 -0.3235 -0.1276
    1W        W55660  24.717  22.237   3.306  0.0322  0.1651 -0.2324
    1W        W55661  27.071  27.835   2.640 -0.1431 -0.0979 -0.1345
    1W        W55662  19.749  28.616   0.984 -0.0390 -0.0299 -0.0695
    1W        W55663  12.963  19.018   6.377 -0.0890 -0.0592 -0.3341
    1W        W55664  14.214   6.250   9.132 -0.1632 -0.2545  0.1474
    1W        W55665   5.883  18.589   0.162 -0.0116 -0.0672  0.0226
    1W        W55666  28.794   1.425   6.621  0.1212 -0.1619  0.0401
    1W        W55667  22.999  28.364   0.564  0.0591 -0.1851 -0.1554
    1W        W55668  29.824   3.163   3.107 -0.1220 -0.0342 -0.3111
    1W        W55669  13.780   6.115   1.826 -0.0622 -0.4164 -0.2099
    1W        W55670  29.363  28.207   1.626 -0.0212  0.0400 -0.1548
    1W        W55671  23.987   9.448   9.348  0.1633 -0.1895 -0.2910
    1W        W55672   3.815   6.207   8.279 -0.2651 -0.0809  0.1793
    1W        W55673  14.668  28.217   7.871  0.3115  0.0772  0.0285
    1W        W55674  11.740   3.264   8.112  0.1025  0.0006 -0.0262
    1W        W55675  26.810  18.826   6.895  0.0772 -0.1785  0.2109
    1W        W55676   6.050   1.830   9.402  0.1586 -0.0789 -0.2758
    1W        W55677  27.893   0.107   3.139  0.1297  0.1785 -0.1316
    1W        W55678  26.309  26.751   9.292 -0.1488 -0.0665 -0.0874
    1W        W55679   0.218   9.843   9.217 -0.3024  0.1826  0.0744
    1W        W55680  27.839   2.712   9.299 -0.2608  0.2341 -0.3329
    1W        W55681  22.291  21.552   7.672  0.5225 -0.1915  0.1900
    1W        W55682  17.475   5.512   2.971  0.2359  0.1271  0.0420
    1W        W55683  24.355  20.437   0.302  0.0589 -0.0891 -0.0917
    1W        W55684  23.187  22.333   0.930 -0.2929 -0.3364 -0.1955
    1W        W55685  28.876   7.564   1.948  0.0041 -0.0611 -0.3105
    1W        W55686  20.216  13.583   7.918 -0.0392 -0.0630 -0.0243
    1W        W55687   9.061  12.806   9.101 -0.1084  0.1752 -0.3308
    1W        W55688  24.909  15.456   7.381 -0.2271 -0.2540 -0.1211
    1W        W55689  26.343  27.254   6.122 -0.1197 -0.0867  0.1552
    1W        W55690   2.846   7.175   1.760  0.1013  0.2032  0.2610
    1W        W55691  24.064   0.568   3.988 -0.2100  0.2073 -0.0061
    1W        W55692  22.600   9.864   8.325 -0.0319  0.1203 -0.0366
    1W        W55693   5.829  20.271   1.741 -0.1039  0.0432 -0.0964
    1W        W55694  20.945   9.557   9.208 -0.2619  0.1636 -0.2335
    1W        W55695   7.006  21.264   1.426 -0.1510 -0.0435  0.1117
    1W        W55696  28.530   6.071   0.729  0.1215  0.2218  0.3441
    1W        W55697  25.794  18.564   7.022 -0.0697 -0.0007  0.1888
    1W        W55698  19.270  19.489   9.405 -0.2157  0.2782  0.0225
    1W        W55699  18.935  11.101   2.139 -0.0989 -0.2300 -0.3963
    1W        W55700  27.542  18.610   8.131  0.0829  0.0681  0.0619
    1W        W55701  12.115  25.452   7.643  0.1127 -0.1808  0.0060
    1W        W55702  23.743  19.501   9.345 -0.1100 -0.0516  0.3784
    1W        W55703  10.469  12.806   1.166 -0.1970 -0.0268 -0.0348
    1W        W55704   0.896   8.602   1.835  0.0220 -0.3228  0.3341
    1W        W55705  15.881   9.039   0.813 -0.1560  0.0880 -0.0708
    1W        W55706  17.522  27.868   0.407  0.0072 -0.0034 -0.0448
    1W        W55707   9.234   5.353   0.049 -0.0989 -0.0347  0.0875
    1W        W55708  15.545  24.658   7.473  0.3238  0.0141  0.2320
    1W        W55709  13.791   1.959   7.528  0.2372 -0.0888 -0.1525
    1W        W55710  25.006  29.714   8.205 -0.1076 -0.1404 -0.0425
    1W        W55711  26.194  15.092   0.881  0.2031 -0.0575  0.1847
    1W        W55712  24.145  23.726   1.389 -0.0982 -0.1356 -0.0229
    1W        W55713  13.887  14.635   8.118 -0.2730 -0.1792 -0.1269
    1W        W55714  14.948   5.265   1.395 -0.0290  0.0642 -0.0029
    1W        W55715   3.999   9.951   8.947  0.0484 -0.0626 -0.0707
    1W        W55716   7.664  18.903   8.769 -0.0297 -0.0344 -0.0792
    1W        W55717   9.411   2.278   1.779  0.1285  0.2058 -0.2460
    1W        W55718  19.869  25.623   8.755  0.0198 -0.0932  0.3098
    1W        W55719  29.726  25.569   6.769  0.1340  0.0675  0.2711
    1W        W55720  15.459  28.036   8.704 -0.1296  0.0090  0.2040
    1W        W55721   3.714  11.683   9.437  0.1204  0.1608  0.1785
    1W        W55722  24.499  20.847   7.059  0.0051 -0.1285 -0.1602
    1W        W55723  20.160  22.883   9.044  0.3355  0.3427 -0.0190
    1W        W55724   7.472  26.033   2.609 -0.0580 -0.1124 -0.0400
    1W        W55725   9.776  15.445   8.033 -0.0985  0.2654 -0.2032
    1W        W55726  16.014  24.032   5.741 -0.2743  0.0712  0.0676
    1W        W55727  25.345  19.810   8.526 -0.1990 -0.2577  0.1444
    1W        W55728  13.780  27.881   7.261  0.0351 -0.2079 -0.0916
    1W        W55729  19.497   0.047   7.864 -0.1876  0.1867 -0.0539
    1W        W55730   3.837   2.615   7.705 -0.0048 -0.2625  0.0834
    1W        W55731   1.364  22.810   7.447  0.1212 -0.0891 -0.2909
    1W        W55732  25.721  24.050   1.937 -0.2161 -0.1521 -0.1461
    1W        W55733   3.956  22.727   1.119  0.3835 -0.2939  0.0453
    1W        W55734  14.739   2.198   1.478 -0.2830  0.0941 -0.0416
    1W        W55735  17.154  16.338   7.475  0.1656 -0.0719 -0.1996
    1W        W55736  18.011  12.711   8.986 -0.1077 -0.0119  0.2260
    1W        W55737   0.599   9.007   6.931 -0.1183 -0.2883  0.0420
    1W        W55738   3.705  19.044   8.235  0.0136 -0.0009 -0.0692
    1W        W55739  21.304   8.399   8.772 -0.1722  0.0174  0.2660
    1W        W55740  21.580   5.102   0.513 -0.0719 -0.4064 -0.0291
    1W        W55741  17.671  23.132   9.296  0.0912 -0.0093  0.2948
    1W        W55742  19.837   8.854   2.383  0.2316 -0.0194  0.0458
    1W        W55743   6.361  25.904   7.173 -0.1330 -0.2052 -0.1862
    1W        W55744  25.665  18.888   6.091 -0.4607 -0.0746 -0.2048
    1W        W55745   4.470  21.990   8.605 -0.2797  0.2285 -0.1813
    1W        W55746  25.255  25.639   2.559 -0.0139  0.1126  0.2559
    1W        W55747   7.786   9.452   9.259 -0.1478 -0.5436  0.2058
    1W        W55748  17.174  20.860   1.524  0.0376  0.2000 -0.3689
    1W        W55749  24.849   6.317   0.096  0.0316 -0.0804 -0.1004
    1W        W55750   4.986   3.292   2.155 -0.0994  0.0432  0.1571
    1W        W55751  23.582  24.268   0.897 -0.0401  0.1615  0.1871
    1W        W55752  13.712  13.190   9.201  0.2267  0.0496 -0.1073
    1W        W55753  25.057  24.358   6.806  0.0305  0.2619 -0.0770
    1W        W55754  20.800  25.747   9.019 -0.0100  0.1184  0.2341
    1W        W55755   2.258  13.348   0.707 -0.5544 -0.1787 -0.2191
    1W        W55756  23.923   0.785   0.056  0.0410 -0.1050 -0.1428
    1W        W55757  22.445  13.160   2.257  0.1845 -0.2405  0.0043
    1W        W55758  11.296   8.095   2.735 -0.2187 -0.3885  0.1658
    1W        W55759  11.340  14.001   6.363  0.1608  0.1275  0.1981
    1W        W55760  12.715   3.282   8.475 -0.1584  0.2016  0.5457
    1W        W55761  20.019   1.230   2.776  0.1895  0.0451 -0.2426
    1W        W55762  12.314  16.556   8.384 -0.2738  0.0646 -0.1362
    1W        W55763  25.420   0.255   2.804  0.4096  0.1827  0.4032
    1W        W55764  25.407  15.156   1.139 -0.3108  0.0247 -0.0325
    1W        W55765  22.849  23.886   6.960 -0.1212 -0.1448 -0.0075
    1W        W55766  11.276  15.395   0.552  0.0348  0.0179 -0.1427
    1W        W55767   2.056  19.385   0.410 -0.0400 -0.2661 -0.2259
    1W        W55768   7.421   4.434   0.151 -0.1526 -0.0585 -0.0839
    1W        W55769  11.510  29.541   8.605 -0.0434 -0.0263 -0.0217
    1W        W55770   2.633  24.930   7.575 -0.1653  0.1337 -0.0459
    1W        W55771  13.537  18.034   1.424 -0.1740 -0.0128 -0.1730
    1W        W55772  29.084   3.377   8.580 -0.3090  0.0656 -0.0380
    1W        W55773   9.220  21.831   6.007 -0.0389  0.1063 -0.0607
    1W        W55774   3.710  13.986   9.410 -0.1543 -0.3032 -0.1689
    1W        W55775  20.925  26.208   0.554  0.3139 -0.0682 -0.0075
    1W        W55776   1.526  24.804   7.211 -0.1140  0.2215  0.1313
    1W        W55777   4.805   8.800   2.548  0.0068 -0.2046 -0.0988
    1W        W55778  27.704   9.659   2.125 -0.1339  0.5190 -0.1608
    1W        W55779  18.473  13.190   0.199 -0.1760 -0.2190 -0.0190
    1W        W55780  24.377  12.760   8.690 -0.2334 -0.1666 -0.1331
    1W        W55781  11.363   3.522   2.745 -0.1879  0.0010  0.2711
    1W        W55782  13.044  20.725   1.315 -0.1430  0.1687  0.0173
    1W        W55783   8.590  25.172   8.763  0.0012  0.1540 -0.0253
    1W        W55784  11.001  27.600   0.757  0.0261  0.0346  0.1425
    1W        W55785  13.116   4.939   9.322  0.0773 -0.0589  0.1906
    1W        W55786   3.782  13.690   7.354 -0.1800 -0.1639 -0.0912
    1W        W55787  29.107  12.248   8.417  0.1050  0.2020 -0.0411
    1W        W55788  10.554  18.298   7.316 -0.0381  0.1506  0.3951
    1W        W55789  18.445   3.262   9.100 -0.0675 -0.1553 -0.1628
    1W        W55790  18.682   2.881   3.409  0.0615 -0.1130  0.1078
    1W        W55791  17.863  20.680   6.243 -0.0551  0.2523  0.1961
    1W        W55792  29.311   0.438   7.191  0.0137  0.1815 -0.0403
    1W        W55793  14.758   6.555   2.940  0.0385 -0.4552  0.1792
    1W        W55794   1.026  15.842   0.608 -0.3232 -0.0722  0.0871
    1W        W55795  25.250  19.462   8.911  0.0322 -0.2693  0.2886
    1W        W55796  20.831  10.637   1.479  0.0888  0.1123 -0.0827
    1W        W55797  26.384  21.215   1.085  0.3311  0.3349 -0.1070
    1W        W55798   4.611  13.053   0.729 -0.0054  0.3923 -0.0386
    1W        W55799  18.956  14.161   6.650 -0.0078 -0.0374  0.0789
    1W        W55800  27.860   1.782   6.476  0.0990  0.4704  0.2764
    1W        W55801   0.911  24.176   6.140 -0.2384 -0.1335 -0.2229
    1W        W55802   6.405   4.324   1.688 -0.1743 -0.0935  0.4016
    1W        W55803  26.063  21.156   7.877 -0.1526  0.1326 -0.1417
    1W        W55804  25.258   7.940   2.179  0.1512  0.1075  0.2312
    1W        W55805  29.009  15.175   2.939 -0.0041 -0.0418 -0.1088
    1W        W55806  17.647   7.996   2.669 -0.1757  0.0141 -0.3525
    1W        W55807  14.055  25.203   9.059 -0.0504 -0.2094 -0.2198
    1W        W55808  12.423  11.232   0.060  0.0973  0.2800 -0.1067
    1W        W55809  27.370  24.464   7.265 -0.2060 -0.0775 -0.1894
    1W        W55810   2.421  21.697   7.059 -0.0265 -0.0235  0.3376
    1W        W55811  22.382  12.332   8.627 -0.0080 -0.0764  0.0014
    1W        W55812  12.193  25.323   7.135 -0.4571  0.1363  0.1128
    1W        W55813   7.335   8.090   7.010 -0.1895  0.2469  0.0347
    1W        W55814  29.349  23.200   8.786 -0.0695  0.2307  0.1864
    1W        W55815  27.542   7.645   1.161 -0.2184 -0.0035 -0.0734
    1W        W55816   0.815  24.505   9.354  0.0626 -0.1207 -0.1491
    1W        W55817  27.245  18.010   6.755 -0.0132  0.0877 -0.0139
    1W        W55818  20.498   0.127   8.525  0.0131  0.0072  0.2861
    1W        W55819  13.568  15.099   8.400 -0.0755 -0.0992 -0.3805
    1W        W55820  23.323  21.411   0.115 -0.1036  0.0336 -0.1965
    1W        W55821   1.527  19.492   0.661 -0.1610  0.0487  0.1416
    1W        W55822  15.255   0.696   6.994  0.2820 -0.2330  0.0335
    1W        W55823  16.758  17.011   2.346 -0.3459  0.0566  0.1519
    1W        W55824  23.270  13.600   1.204  0.0424 -0.1012 -0.0499
    1W        W55825   0.180   7.384   1.049  0.1219  0.2374  0.2617
    1W        W55826  16.759  12.814   8.991 -0.2741 -0.0682 -0.1480
    1W        W55827   0.753   2.652   2.581  0.1850  0.0956 -0.0517
    1W        W55828   9.970  16.458   1.586  0.4158 -0.0518 -0.0448
    1W        W55829  12.248   6.483   1.418 -0.0054 -0.0507 -0.2283
    1W        W55830  25.021   5.637   7.641  0.1353  0.0413 -0.0238
    1W        W55831   0.210  15.240   0.068 -0.1616 -0.1971 -0.0039
    1W        W55832  29.599   3.827   0.587 -0.1725 -0.0341 -0.3069
    1W        W55833  21.595  19.865   7.342  0.0177  0.0892  0.1603
    1W        W55834  29.402  27.443   7.057 -0.2324  0.0687 -0.3959
    1W        W55835  28.122   9.948   2.092 -0.0067  0.0642 -0.1829
    1W        W55836  14.718   7.607   0.841  0.0077  0.1030 -0.3100
    1W        W55837   3.121  11.581   8.262  0.1757 -0.1477 -0.0381
    1W        W55838   5.108   5.326   2.967 -0.2772  0.2272  0.2629
    1W        W55839  22.516  27.809   9.281 -0.1290  0.1848 -0.1444
    1W        W55840  20.265   7.072   1.449 -0.2765 -0.0526 -0.0322
    1W        W55841  25.238   6.838   8.551  0.0790  0.2206 -0.1695
    1W        W55842   0.948   9.492   1.488 -0.1910  0.1634  0.2786
    1W        W55843  11.717   2.116   2.511 -0.3735  0.1556  0.1762
    1W        W55844   4.261   7.561   8.870 -0.0240  0.1268  0.0703
    1W        W55845  17.730   1.294   4.342 -0.3069  0.1382 -0.0306
    1W        W55846   6.290  15.663   2.246 -0.1508 -0.0789 -0.0221
    1W        W55847   3.023  20.265   1.904 -0.0851 -0.0422  0.3400
    1W        W55848  29.012  15.897   7.353 -0.2520  0.1061  0.2300
    1W        W55849   2.885  13.296   1.927  0.0381 -0.0123  0.2350
    1W        W55850  20.115   1.873   1.959  0.0289 -0.3685 -0.0419
    1W        W55851  16.048  18.365   1.419 -0.0969 -0.0140 -0.0047
    1W        W55852   3.327  26.054   1.373 -0.0783 -0.1415  0.1656
    1W        W55853  23.164  19.814   6.143  0.2518 -0.1707 -0.1574
    1W        W55854  15.053  15.307   7.078  0.2793 -0.2560 -0.1010
    1W        W55855  20.038  22.378   0.166  0.2368  0.0000 -0.1299
    1W        W55856  12.635  22.517   6.868  0.0286  0.0138  0.2270
    1W        W55857  20.971   8.040   8.563 -0.3826  0.0809  0.0524
    1W        W55858  10.278  10.690   7.008 -0.0022  0.5195 -0.0407
    1W        W55859   8.128   1.624   0.025  0.2600 -0.0403 -0.0876
    1W        W55860  24.319  10.298   1.991  0.1963 -0.0497  0.1296
    1W        W55861  22.442   7.752   3.140  0.0815 -0.0417 -0.2321
    1W        W55862   1.144   9.955   1.495  0.1399  0.1630  0.0615
    1W        W55863   2.453  21.220   7.021  0.0384 -0.1438 -0.4704
    1W        W55864  24.993  12.687   0.889 -0.3016  0.2206 -0.3806
    1W        W55865  19.104   4.350   1.356 -0.0349 -0.0571  0.2234
    1W        W55866  12.312   3.084   1.221 -0.0387  0.0132  0.3073
    1W        W55867  23.651  17.936   7.322 -0.0926  0.1421 -0.2062
    1W        W55868   6.793   5.462   7.181  0.0296  0.0902 -0.0969
    1W        W55869  15.998  18.010   8.001  0.0045  0.0253  0.1500
    1W        W55870  16.670   2.610   0.211  0.1110 -0.2004 -0.3741
    1W        W55871  27.282  27.322   8.464 -0.0272 -0.0265 -0.0315
    1W        W55872   4.090   8.255   2.517  0.1748  0.1920  0.0451
    1W        W55873   1.571  16.229   6.897 -0.1858 -0.2489  0.1722
    1W        W55874  17.613   8.418   8.972 -0.0450  0.3575  0.2506
    1W        W55875  14.417  27.049   3.046  0.2596 -0.0154  0.3683
    1W        W55876   8.893  22.568   0.951  0.2321  0.0334 -0.2671
    1W        W55877   6.008  10.863   7.365 -0.0736 -0.1820  0.2485
    1W        W55878   2.726   9.272   0.276 -0.4128  0.0069  0.0074
    1W        W55879  18.830   2.094   2.919  0.1294  0.1685  0.0130
    1W        W55880  13.083  21.508   9.016 -0.3034  0.1547 -0.0188
    1W        W55881  17.601   9.107   7.958  0.1094  0.2281 -0.1201
    1W        W55882   4.682   3.538   0.200 -0.0439  0.1778 -0.2180
    1W        W55883   2.871  27.089   7.555 -0.0935  0.0549 -0.2761
    1W        W55884   9.599   0.517   7.654 -0.1297 -0.0258 -0.1127
    1W        W55885  28.205   1.822   9.289  0.1919 -0.2118  0.1798
    1W        W55886  10.299   5.259   9.323 -0.0570  0.0721  0.3508
    1W        W55887  29.386  21.796   8.972 -0.0241 -0.0739 -0.0351
    1W        W55888  20.094   5.630   1.445 -0.0364 -0.1081 -0.2942
    1W        W55889  29.551  16.310   8.639 -0.0929  0.0572 -0.0063
    1W        W55890   5.767   5.640   8.477  0.0192 -0.2328  0.3641
    1W        W55891   1.283  19.564   1.390 -0.0183 -0.0329 -0.0363
    1W        W55892   0.461  26.454   5.939  0.0356 -0.0894  0.3673
    1W        W55893   7.159   0.366   0.678  0.0517  0.0951  0.0054
    1W        W55894  12.964  15.395   9.154 -0.0777 -0.0159 -0.0423
    1W        W55895   9.645  22.224   1.397 -0.2045  0.0167 -0.1543
    1W        W55896   7.674   7.020   8.082  0.0007 -0.0347 -0.1518
    1W        W55897   8.421   8.566   2.571 -0.0618  0.1483 -0.1489
    1W        W55898   3.753  15.043   0.147 -0.0435 -0.2422  0.0125
    1W        W55899  12.770   6.835   9.247  0.3440  0.0860  0.1935
    1W        W55900   4.880   5.104   8.332  0.1391  0.1898 -0.2142
    1W        W55901  29.259  12.253   7.431  0.1700  0.0230  0.2036
    1W        W55902  28.387  13.661   7.579 -0.3177 -0.2198  0.0034
    1W        W55903  16.156   1.182   2.737 -0.0439 -0.1735  0.0001
    1W        W55904   2.434   4.827   9.402  0.0736  0.0663 -0.2556
    1W        W55905   5.577   2.371   7.418  0.1760  0.0206 -0.1940
    1W        W55906   5.017  11.425   9.035  0.0610  0.3338  0.0687
    1W        W55907  20.227  10.456   0.441 -0.0698 -0.0106 -0.0214
    1W        W55908  24.834   3.584   0.743 -0.4324  0.1290 -0.1602
    1W        W55909  16.775  23.051   5.833  0.3032 -0.1725  0.1579
    1W        W55910   8.360  14.528   0.082  0.0903  0.1094 -0.0145
    1W        W55911  16.041  20.564   9.125  0.2232 -0.0942  0.0713
    1W        W55912  25.578  23.987   0.008 -0.0099 -0.2686  0.0050
    1W        W55913   0.142  18.585   1.034  0.0286  0.2451  0.0523
    1W        W55914  13.954   8.312   2.245 -0.1630  0.2279  0.1196
    1W        W55915  18.821   6.827   2.865  0.1380 -0.0623  0.3665
    1W        W55916  14.350   4.851   8.371  0.1283 -0.2921 -0.1306
    1W        W55917   1.344  14.198   8.505  0.1464  0.3179 -0.0253
    1W        W55918  22.201   0.784   2.559  0.3316 -0.0475  0.2925
    1W        W55919  14.311  28.250   7.522  0.0006 -0.1260  0.0419
    1W        W55920   5.689  20.942   0.325  0.2053 -0.3125 -0.2974
    1W        W55921   1.390   2.486   7.014  0.2280  0.1898 -0.1107
    1W        W55922  11.967   9.399   9.018  0.0320 -0.1576 -0.0441
    1W        W55923   6.511   4.480   3.596 -0.0417 -0.0667  0.0421
    1W        W55924  16.643   1.683   1.994 -0.1610 -0.3295 -0.0012
    1W        W55925   8.207   9.641   6.878  0.2157  0.1065 -0.1539
    1W        W55926  10.631  16.977   9.030 -0.0455 -0.0920 -0.1708
    1W        W55927  16.540   6.246   8.555  0.0210  0.0648 -0.1308
    1W        W55928   7.507  15.841   9.081  0.0564  0.0624  0.1061
    1W        W55929  10.392  15.922   9.332 -0.1097  0.1576 -0.0311
    1W        W55930   5.056   4.954   2.620 -0.0953  0.2091  0.0135
    1W        W55931  25.322  24.195   2.363 -0.2440 -0.0311  0.2378
    1W        W55932  24.128   4.710   2.102 -0.1673 -0.1167  0.0955
    1W        W55933  15.686   7.612   2.924 -0.4456  0.1727  0.2383
    1W        W55934  10.072  20.292   6.150  0.0951  0.0954 -0.0970
    1W        W55935  12.050   9.669   8.201 -0.0307 -0.0724  0.1429
    1W        W55936   4.363  24.180   1.188  0.1111  0.0765  0.1965
    1W        W55937  21.438  14.463   0.925 -0.3463 -0.2047 -0.1603
    1W        W55938   4.013  22.992   5.626 -0.0157 -0.0592  0.0482
    1W        W55939  24.709  10.319   0.608 -0.0361 -0.1395 -0.1115
    1W        W55940  21.925   6.983   8.902  0.2681 -0.0461 -0.1766
    1W        W55941   4.056  29.783   7.448  0.1360 -0.0405  0.1168
    1W        W55942   3.742  17.252   0.767 -0.0668 -0.2111  0.1140
    1W        W55943  21.010  27.596   7.747 -0.2804  0.0427 -0.1219
    1W        W55944  23.509   6.596   3.775  0.0855 -0.2880 -0.1356
    1W        W55945  13.242  13.376   7.309 -0.0110  0.1200  0.1360
    1W        W55946  10.680  16.936   6.823 -0.2655 -0.1285  0.0571
    1W        W55947   0.585  22.827   6.028  0.1912 -0.1402 -0.1728
    1W        W55948  29.278  11.828   8.702 -0.2622  0.1659 -0.0673
    1W        W55949  10.249  10.348   7.931  0.1173 -0.3366 -0.0972
    1W        W55950  10.657   2.322   1.941  0.0602  0.1979  0.3582
    1W        W55951  26.654  12.515   0.442 -0.2856  0.1465  0.1960
    1W        W55952  26.173   3.213   8.462  0.0477 -0.1533  0.0842
    1W        W55953  11.700   6.619   3.093 -0.0820 -0.1152 -0.1557
    1W        W55954   8.038  23.250   1.654 -0.1716 -0.0981 -0.1946
    1W        W55955  20.780   9.301   0.812 -0.1749  0.3141  0.1823
    1W        W55956  26.129  29.056   0.563  0.0746 -0.0904  0.2459
    1W        W55957  15.313  20.095   0.178  0.1577 -0.0114 -0.0286
    1W        W55958  24.879  23.817   6.934 -0.3760  0.0002 -0.0363
    1W        W55959   2.770   4.326   7.722 -0.0357  0.1088 -0.2028
    1W        W55960  24.182  28.689   8.599 -0.0006 -0.1296  0.0448
    1W        W55961  13.313  22.859   7.443 -0.2171  0.0874  0.0060
    1W        W55962  13.444  28.029   7.587  0.2830 -0.2326  0.2968
    1W        W55963   2.168  19.514   9.475 -0.0943 -0.2193 -0.3315
    1W        W55964   5.292  26.829   9.056  0.0534  0.2778  0.2604
    1W        W55965  10.055  12.602   2.940  0.3417  0.0082 -0.0880
    1W        W55966   0.436  18.494   0.371  0.3237  0.0406 -0.2429
    1W        W55967  14.894  27.328   8.635  0.0869 -0.0055  0.0702
    1W        W55968   8.690   7.915   9.231  0.1200  0.1570 -0.2691
    1W        W55969  26.299   2.692   8.288 -0.2889 -0.0656 -0.4328
    1W        W55970   9.504  11.866   0.564 -0.1050  0.1507  0.0173
    1W        W55971   0.358  12.435   1.606 -0.1438 -0.0369 -0.2972
    1W        W55972   3.362   9.535   9.309  0.1587 -0.0472  0.1514
    1W        W55973  20.943  24.695   1.874  0.0537  0.0801  0.3291
    1W        W55974  25.037  26.907   7.718  0.2672 -0.2514  0.1910
    1W        W55975  27.904  21.811   6.220  0.2387 -0.2471  0.2017
    1W        W55976  12.491   2.464   8.090 -0.0403  0.0048  0.1851
    1W        W55977  28.764   5.471   9.457 -0.0819 -0.0260  0.2421
    1W        W55978   5.871   2.032   8.953 -0.0283  0.0976 -0.1070
    1W        W55979  24.910  17.044   9.146 -0.1384  0.2155  0.2574
    1W        W55980  24.168   2.246   7.505  0.0070 -0.2571 -0.1805
    1W        W55981   5.820  25.487   6.912  0.2816  0.0987 -0.1093
    1W        W55982  10.162   1.858   7.272  0.0995 -0.1090  0.2144
    1W        W55983   5.833   5.432   9.205 -0.2429 -0.1053  0.0923
    1W        W55984  24.856  18.169   7.427  0.2047  0.0133 -0.2990
    1W        W55985  11.259   7.466   0.834  0.0622 -0.2379  0.1444
    1W        W55986   7.797  12.216   2.082 -0.1290  0.1270  0.0153
    1W        W55987  18.701   3.089   2.954  0.0647 -0.0170 -0.0350
    1W        W55988   0.727  20.481   9.258  0.0057  0.0584  0.0342
    1W        W55989   0.425  15.173   6.749  0.0214 -0.0544 -0.0270
    1W        W55990   3.332  15.330   2.380  0.1289  0.0740  0.0647
    1W        W55991   3.632  25.423   0.372 -0.2273 -0.0360  0.2507
    1W        W55992  13.601  12.192   0.720  0.1983 -0.3915  0.2486
    1W        W55993   8.967  14.370   8.338  0.1887  0.1664  0.2963
    1W        W55994  28.211  10.388   6.290  0.1521  0.0828  0.1378
    1W        W55995  23.077   0.607   1.810  0.2024  0.0560  0.0489
    1W        W55996  19.111  18.654   5.954  0.2100 -0.2144  0.0034
    1W        W55997  20.371   4.737   3.221  0.0129 -0.0598  0.2590
    1W        W55998  24.611  21.644   6.701 -0.0762  0.1504  0.1827
    1W        W55999  16.419  28.791   2.521  0.3047  0.0850 -0.2399
    1W        W56000  27.709  11.728   1.571 -0.0904 -0.5262 -0.0890
    1W        W56001   6.106  22.266   8.010 -0.1566 -0.1277  0.0080
    1W        W56002  23.919  28.088   1.615  0.1257 -0.1976 -0.2859
    1W        W56003  26.443  24.261   6.942 -0.1790  0.2255 -0.1135
    1W        W56004   1.262   9.489   1.878  0.2506 -0.0705  0.0995
    1W        W56005  27.153  28.591   2.042  0.1250 -0.1695  0.1541
    1W        W56006  29.613   7.224   9.173 -0.0164  0.0415  0.1878
    1W        W56007  22.491  21.406   6.930 -0.3094 -0.2361 -0.1169
    1W        W56008  17.004  27.047   0.256 -0.3145  0.0336 -0.1714
    1W        W56009   0.033  28.865   7.453  0.1372  0.3361  0.2836
    1W        W56010  17.334  14.064   7.760  0.2576  0.0369 -0.4197
    1W        W56011   8.734   9.307   9.079  0.2217 -0.0109 -0.0390
    1W        W56012  25.769  26.325   8.244 -0.2424  0.1940 -0.4148
    1W        W56013   0.301  12.591   8.305 -0.1157 -0.2033  0.1042
    1W        W56014   1.534  18.503   0.064 -0.0800 -0.2917  0.1410
    1W        W56015  23.935  23.751   9.396  0.0936  0.0378  0.0020
    1W        W56016  20.321  24.955   7.310 -0.2592  0.1833 -0.3857
    1W        W56017   7.765  29.777   2.295  0.1184 -0.3599  0.0130
    1W        W56018   7.129  14.297   7.026 -0.0213  0.1006  0.1052
    1W        W56019  25.984  14.401   8.887  0.1196  0.0530  0.0165
    1W        W56020  15.071   3.276   0.089  0.0676  0.0342 -0.2342
    1W        W56021   2.884  12.417   3.019 -0.1120 -0.4461 -0.1405
    1W        W56022  13.182  29.282   7.682 -0.1438  0.0306  0.1878
    1W        W56023   3.498  11.643   6.972  0.2824 -0.2133  0.1347
    1W        W56024  19.433  16.336   0.011  0.1700  0.1236  0.2415
    1W        W56025  17.233  18.483   7.275 -0.1034  0.3826  0.0544
    1W        W56026  27.861   9.344   0.503 -0.0001  0.2966  0.3428
    1W        W56027  22.188  18.219   0.915 -0.0482 -0.1413 -0.0516
    1W        W56028  25.282   0.377   3.384  0.0553  0.1190  0.0406
    1W        W56029  21.043   5.051   8.087  0.0864 -0.0377 -0.1767
    1W        W56030  13.559  10.869   0.098  0.0237  0.0503  0.2749
    1W        W56031   0.497  14.928   0.755 -0.0115  0.0063 -0.2909
    1W        W56032   0.742   5.662   9.101  0.2080  0.0169  0.2494
    1W        W56033   3.146  26.307   8.487 -0.1932 -0.0170 -0.2899
    1W        W56034   0.769  20.611   1.899  0.0123  0.1053 -0.1630
    1W        W56035  14.315   0.394   1.052 -0.3783  0.1431  0.0430
    1W        W56036  25.516  17.606   9.285 -0.2099 -0.0981 -0.3330
    1W        W56037  11.566   6.833   0.180 -0.3865  0.0662  0.1521
    1W        W56038  17.429  21.558   0.113  0.1402 -0.4135  0.2500
    1W        W56039  21.828  17.977   7.138  0.2318  0.0134 -0.2974
    1W        W56040  28.728  21.973   2.628  0.0558 -0.2545 -0.4437
    1W        W56041  27.987   0.105   8.263  0.0469  0.0297 -0.3324
    1W        W56042  13.972  22.696   1.828 -0.0252 -0.0990 -0.3608
    1W        W56043  27.832  15.796   8.860 -0.2479  0.0269 -0.2108
    1W        W56044  27.389   6.057   0.425  0.3476 -0.1671 -0.2756
    1W        W56045  28.328  15.695   1.793 -0.0326 -0.0327  0.2651
    1W        W56046  13.532   4.530   3.825 -0.0225  0.1843  0.0845
    1W        W56047  20.204  18.321   2.168 -0.0784 -0.0829  0.0805
    1W        W56048  22.659   8.621   2.273  0.1194  0.2468 -0.0465
    1W        W56049  17.777  23.396   7.306  0.3101 -0.1693  0.1607
    1W        W56050  16.993  13.367   9.150 -0.2195  0.1332 -0.1805
    1W        W56051   3.172  22.758   2.756 -0.0386  0.0176  0.1211
    1W        W56052  23.661  11.244   7.375  0.2471 -0.0279 -0.2378
    1W        W56053  13.071   1.419   0.949 -0.3618  0.1089  0.0936
    1W        W56054   9.165   9.451   6.726 -0.0472  0.0604 -0.1653
    1W        W56055   2.123  24.783   0.668  0.2009 -0.0091 -0.0780
    1W        W56056  11.685   9.660   2.854 -0.2173 -0.0404  0.2223
    1W        W56057  28.882  27.746   6.175 -0.0010 -0.0327 -0.1524
    1W        W56058  16.453   0.185   2.679 -0.1747  0.1591 -0.1406
    1W        W56059   9.688  27.753   1.269 -0.0061 -0.2192 -0.1085
    1W        W56060  17.625  27.397   2.480  0.0852  0.3703  0.0741
    1W        W56061  13.791  16.298   0.759 -0.0100 -0.2020 -0.3077
    1W        W56062  17.683   3.137   3.458 -0.1676 -0.1739 -0.2322
    1W        W56063  29.293  19.757   1.270 -0.0064  0.2667 -0.1368
    1W        W56064  25.093   7.495   7.318 -0.0743  0.3333  0.1376
    1W        W56065  22.390  26.519   7.648  0.1213  0.1989  0.2209
    1W        W56066  25.238   6.627   3.390 -0.0196  0.0469  0.0077
    1W        W56067  18.460  22.285   7.906  0.0500  0.0791 -0.2401
    1W        W56068   4.337  16.515   0.477  0.0166 -0.3394  0.0900
    1W        W56069   5.957   7.820   9.518 -0.1397  0.0414 -0.1939
    1W        W56070   3.782  29.063   0.320  0.0510 -0.2894 -0.2850
    1W        W56071   1.632   7.502   2.617 -0.1307  0.0895 -0.0032
    1W        W56072   2.821   8.959   1.152  0.2007  0.0054  0.1476
    1W        W56073   7.320  23.582   0.202 -0.1292 -0.2802 -0.0137
    1W        W56074  12.320  28.367   8.876 -0.1693  0.1136  0.2883
    1W        W56075  19.881   1.189   0.473 -0.1033 -0.1745 -0.2794
    1W        W56076  23.543   5.176   1.849 -0.2722 -0.0971 -0.0417
    1W        W56077  28.225  21.101   2.570 -0.0441 -0.0333 -0.2370
    1W        W56078  24.943   4.025   2.651 -0.0102 -0.1762 -0.1963
    1W        W56079   4.865  26.917   1.724  0.1312 -0.3662  0.0472
    1W        W56080   4.365  17.714   7.509  0.2866 -0.1953 -0.2117
    1W        W56081   8.145  17.697   0.460 -0.0502 -0.1352 -0.0180
    1W        W56082   3.279  27.757   9.058  0.0905 -0.1815  0.0555
    1W        W56083  18.409  25.108   9.302 -0.1416 -0.2527 -0.1498
    1W        W56084   2.120  22.169   7.800  0.1223  0.1858  0.1680
    1W        W56085  19.703  26.458   0.335 -0.2818  0.1618  0.2587
    1W        W56086  19.841   3.344   1.829  0.3065  0.0519  0.1331
    1W        W56087  28.997  10.073   7.052  0.0250  0.3044  0.0840
    1W        W56088  18.566   0.878   1.031  0.1735 -0.1338  0.1676
    1W        W56089  28.650  26.035   2.047 -0.0266  0.1106  0.2071
    1W        W56090  22.017  16.977   7.108 -0.0930  0.2371 -0.4050
    1W        W56091  21.568  12.873   8.234 -0.0366  0.1931 -0.1406
    1W        W56092   8.637   9.408   6.542 -0.1640  0.0869  0.0439
    1W        W56093  16.682   2.730   3.658  0.4287 -0.4255 -0.0333
    1W        W56094  19.970  10.114   0.728 -0.0535  0.2508  0.1197
    1W        W56095   1.946  16.006   2.621  0.1987 -0.0307 -0.1927
    1W        W56096  21.327  22.209   1.600  0.1384  0.0431 -0.1546
    1W        W56097  22.674   4.844   3.471 -0.0410 -0.1934  0.1859
    1W        W56098  23.680  18.671   0.006  0.1486 -0.0875  0.0648
    1W        W56099  16.814   1.270   9.100 -0.0244  0.0438 -0.0330
    1W        W56100  20.206  26.912   1.030 -0.2582 -0.0571  0.2790
    1W        W56101  17.552   4.390   1.891 -0.1638 -0.3016  0.0610
    1W        W56102   2.386   3.714   7.211  0.2734  0.0895  0.2290
    1W        W56103  17.095  25.927   5.845 -0.0882  0.2602  0.0046
    1W        W56104   7.457  17.231   8.085  0.0278 -0.0318  0.1343
    1W        W56105   8.638   0.016   8.310  0.0840 -0.3040 -0.0950
    1W        W56106   8.419  13.965   9.198 -0.1623  0.1330 -0.0992
    1W        W56107   5.499  16.764   0.244  0.0446  0.1229 -0.1902
    1W        W56108  29.811  22.322   7.594 -0.1785 -0.2941  0.0389
    1W        W56109   9.870  18.515   6.233 -0.0734 -0.1200 -0.0777
    1W        W56110  16.122  12.957   0.265  0.0623  0.0729  0.0286
    1W        W56111   0.163  15.379   8.402  0.1670  0.0955  0.1662
    1W        W56112   5.659   0.615   8.349 -0.1786  0.0930 -0.3164
    1W        W56113   5.616  11.193   2.193  0.1131 -0.0561 -0.0980
    1W        W56114   4.990  28.406   5.830  0.1765  0.3783 -0.0046
    1W        W56115  29.009  11.624   7.325 -0.0937  0.5888  0.1898
    1W        W56116  13.805  13.869   2.577 -0.0852  0.1442  0.1385
    1W        W56117  21.787   2.634   8.406  0.0275  0.1410 -0.2254
    1W        W56118  22.454   0.820   3.403  0.0641  0.0703 -0.3251
    1W        W56119  29.533   4.173   1.080  0.1138  0.1517 -0.0575
    1W        W56120  23.108  23.786   0.811  0.2462  0.0995 -0.0846
    1W        W56121   1.879  12.926   7.996 -0.1741  0.0578 -0.0430
    1W        W56122  15.631  23.749   0.975 -0.0817  0.0379  0.1577
    1W        W56123  29.294  13.377   0.514  0.0344  0.0371  0.0705
    1W        W56124  27.967  12.362   0.606  0.0350  0.1364 -0.0507
    1W        W56125  18.969   3.235   8.395  0.1488  0.0912  0.1994
    1W        W56126  28.739  17.382   8.673  0.1849  0.0592 -0.0150
    1W        W56127   5.023  13.289   0.585  0.0563  0.2965  0.0280
    1W        W56128  12.849  28.566   3.136  0.0649 -0.0259  0.0814
    1W        W56129  23.884   2.758   2.025 -0.1559  0.0073 -0.0683
    1W        W56130  29.697   5.015   8.813  0.1661  0.1426  0.2291
    1W        W56131  28.943  27.990   6.679  0.0863 -0.0895  0.1948
    1W        W56132   3.643  11.715   1.909 -0.0304  0.0349 -0.2026
    1W        W56133  13.565   0.374   2.244  0.0057  0.3468 -0.1723
    1W        W56134   8.454   4.841   0.595  0.0989  0.0035  0.0414
    1W        W56135  12.115   9.855   0.544 -0.0765  0.0592 -0.0680
    1W        W56136  23.160  25.500   1.926 -0.0765  0.2056  0.0092
    1W        W56137  24.676  15.600   0.349  0.0235  0.2483 -0.3480
    1W        W56138  13.013  29.416   2.093 -0.2276 -0.0864  0.1465
    1W        W56139  13.159  26.637   7.179  0.1437  0.0609 -0.0079
    1W        W56140  13.857  20.737   0.997 -0.0446  0.0899  0.1718
    1W        W56141  10.675  14.982   9.443 -0.0711 -0.0794 -0.1626
    1W        W56142  17.894   2.811   8.442  0.2059 -0.1206  0.1523
    1W        W56143  27.557   0.534   1.927  0.0400  0.0459 -0.0748
    1W        W56144   6.094   7.303   1.224  0.0157  0.2595 -0.4120
    1W        W56145   0.678  15.306   1.818 -0.0693  0.1569 -0.1856
    1W        W56146  24.671  18.307   6.480 -0.1730  0.0651 -0.0278
    1W        W56147  14.250  15.392   7.687  0.1344 -0.0786  0.1355
    1W        W56148  20.115  29.466   3.606  0.1469 -0.2814 -0.2133
    1W        W56149  14.983   7.929   1.159  0.3484 -0.3064  0.0869
    1W        W56150  11.124  19.506   9.111 -0.1628  0.1636 -0.0942
    1W        W56151   9.739  25.918   1.975 -0.0996 -0.2959  0.3317
    1W        W56152   5.434   8.329   6.401 -0.3428 -0.0685 -0.0314
    1W        W56153  19.494  26.720   1.808 -0.2946  0.1986 -0.0889
    1W        W56154  15.007   9.016   9.257  0.0193 -0.1334 -0.0855
    1W        W56155   5.462  14.553   7.446  0.2305  0.0012 -0.0870
    1W        W56156  16.455   4.129   8.695 -0.1599  0.0947 -0.0460
    1W        W56157   7.500   8.055   1.751  0.1865  0.4654  0.1368
    1W        W56158   1.823  14.608   7.963 -0.0780 -0.2440 -0.0447
    1W        W56159   2.262  12.868   0.531  0.3454  0.3590 -0.3968
    1W        W56160  24.887   9.814   7.451  0.0827  0.1333  0.1120
    1W        W56161   0.968  24.628   1.712  0.0121  0.1385 -0.1701
    1W        W56162   9.607  23.596   1.421  0.1730 -0.0784  0.0386
    1W        W56163   6.723   7.050   0.728 -0.0392 -0.1275 -0.3071
    1W        W56164   5.300  29.657   9.088  0.1010  0.2454  0.0118
    1W        W56165   4.206  18.195   1.417  0.0154  0.0880 -0.0560
    1W        W56166  13.434   6.016   1.425 -0.0275  0.2987  0.1200
    1W        W56167   8.795   8.484   6.268 -0.0199 -0.0783  0.2672
    1W        W56168  12.269  12.656   7.843  0.0220 -0.5198  0.0588
    1W        W56169   4.328   9.506   1.980  0.3468 -0.2879  0.0470
    1W        W56170  27.772  12.729   3.042 -0.0151  0.0732 -0.0448
    1W        W56171  12.666  12.118   1.758 -0.2683  0.0611 -0.0534
    1W        W56172   6.846  25.020   1.502 -0.1283 -0.3879  0.1696
    1W        W56173  20.450  27.902   1.177  0.2745 -0.0235 -0.2859
    1W        W56174  13.394  26.990   0.014  0.0927  0.4899 -0.1695
    1W        W56175   6.916  11.900   0.885 -0.2225  0.1440 -0.0652
    1W        W56176   7.181  23.169   7.770  0.4184  0.0519 -0.1275
    1W        W56177   2.395  24.953   9.312  0.1375  0.2103  0.2561
    1W        W56178  20.520   1.912   0.580  0.0345  0.1512  0.1498
    1W        W56179  20.972  14.176   7.318  0.2782  0.0263  0.0911
    1W        W56180   6.396   2.569   1.873  0.1651  0.4061 -0.1784
    1W        W56181   1.304   4.379   2.525 -0.2414  0.3193 -0.1646
    1W        W56182  13.151  20.806   8.965  0.2528  0.1713  0.2246
    1W        W56183  10.193  28.839   2.673  0.0192  0.0476 -0.2938
    1W        W56184  13.109  28.080   8.009  0.0486 -0.1140 -0.2503
    1W        W56185  11.500  18.959   2.320 -0.3457 -0.1498 -0.2112
    1W        W56186  27.422  18.688   0.944  0.0067  0.0198  0.0039
    1W        W56187   2.243   8.749   1.713  0.2588 -0.1573 -0.0333
    1W        W56188  23.727  28.212   2.993  0.3834 -0.1293 -0.2323
    1W        W56189  26.918  25.026   2.283  0.3677  0.3405 -0.4349
    1W        W56190  29.834   0.764   6.506  0.0097 -0.2371  0.0998
    1W        W56191   3.409   4.473   0.210  0.1261  0.0482  0.4798
    1W        W56192  15.471  29.179   3.496 -0.0342  0.1511  0.1962
    1W        W56193   1.081  25.204   8.116  0.1391 -0.0484 -0.1382
    1W        W56194   4.862  12.691   1.364  0.1128 -0.1224 -0.2158
    1W        W56195  16.809   2.002   3.886 -0.2129 -0.2397  0.2363
    1W        W56196  22.636  24.511   0.940  0.1642  0.0991 -0.3767
    1W        W56197   0.312  20.509   0.513  0.2621  0.4255  0.1907
    1W        W56198  18.846  14.569   8.840  0.0719  0.2469  0.4499
    1W        W56199   2.240  21.662   1.032 -0.0731 -0.0263  0.0880
    1W        W56200  14.825   3.445   3.713 -0.1963 -0.2087  0.2544
    1W        W56201   9.128   4.547   0.018  0.2295 -0.0589  0.0400
    1W        W56202  28.839  27.474   6.575  0.1880  0.0591  0.0925
    1W        W56203  19.458   1.603   8.621  0.1105 -0.1244  0.2737
    1W        W56204   4.715   8.663   6.920 -0.1696  0.0708  0.1080
    1W        W56205   9.009  10.110   1.428  0.2237 -0.1687  0.1972
    1W        W56206  28.778   1.444   7.123  0.0988  0.0292  0.4495
    1W        W56207  14.473  22.807   7.643 -0.0679  0.1901  0.1350
    1W        W56208   6.848  29.705   9.178 -0.0120  0.1257  0.0955
    1W        W56209   6.229  15.100   2.221  0.1776  0.1396  0.0149
    1W        W56210  20.653   7.217   8.537 -0.1877  0.0554  0.0453
    1W        W56211  13.065  13.984   6.663  0.3020 -0.1201 -0.1696
    1W        W56212  29.693  16.887   0.747  0.0048  0.2649 -0.0778
    1W        W56213  16.597  22.554   0.993 -0.3909 -0.0780 -0.1691
    1W        W56214  18.714  27.609   8.233 -0.2784 -0.0474  0.0796
    1W        W56215  21.536  18.881   5.954  0.0328 -0.0921  0.3923
    1W        W56216   7.724  15.566   8.123  0.1084  0.3172  0.1011
    1W        W56217  27.692   5.419   1.986 -0.1572 -0.0452  0.4500
    1W        W56218   8.796  26.557   0.198 -0.1215  0.2226 -0.2611
    1W        W56219  19.317  28.400   0.930  0.0665 -0.2860 -0.1886
    1W        W56220   6.430   8.698   2.358 -0.1243  0.0297  0.3757
    1W        W56221  14.763  16.566   6.467  0.1384  0.0438 -0.0505
    1W        W56222  10.554   1.644   1.131  0.0659 -0.1116 -0.0329
    1W        W56223  19.782  10.850   1.972  0.4245 -0.2597  0.1096
    1W        W56224  22.193   7.973   0.318  0.1785  0.0264 -0.1759
    1W        W56225  17.138   1.994   9.025 -0.2417 -0.0234  0.1440
    1W        W56226   2.230   1.545   0.200  0.0363 -0.0711  0.2149
    1W        W56227  25.378  28.220   7.158 -0.1950  0.1149 -0.1367
    1W        W56228  28.779  18.856   2.735  0.2265 -0.0031  0.1388
    1W        W56229  25.158  18.947   7.794  0.0048  0.0807 -0.0527
    1W        W56230  29.736  27.389   0.448 -0.3766 -0.2999 -0.2245
    1W        W56231  28.550  26.439   7.373  0.3039  0.2841  0.1480
    1W        W56232  13.835   4.526   3.182  0.0195 -0.1868 -0.2771
    1W        W56233   7.398  14.933   0.012 -0.0301  0.3531 -0.0457
    1W        W56234  11.540   5.828   1.658  0.0147  0.1279 -0.0350
    1W        W56235   7.067   6.854   9.433 -0.0647 -0.0401  0.0691
    1W        W56236  17.937   9.116   1.538  0.0302 -0.0306  0.1461
    1W        W56237  16.344  18.181   6.645 -0.1907  0.1082 -0.2484
    1W        W56238   9.587  23.987   2.369 -0.3572  0.1564 -0.0934
    1W        W56239   6.151  14.634   7.279 -0.3854 -0.0523  0.0427
    1W        W56240  24.091  19.809   9.154 -0.0578 -0.0880  0.1809
    1W        W56241   2.636   1.551   7.144  0.1143 -0.2428 -0.0819
    1W        W56242   4.642  12.327   2.072  0.0041  0.4740 -0.2598
    1W        W56243  17.849  26.704   2.096 -0.2063 -0.1427  0.0296
    1W        W56244   7.566  15.281   1.486 -0.0111 -0.0605  0.3061
    1W        W56245   1.923   8.467   6.846 -0.0716  0.0228 -0.0429
    1W        W56246   7.411  26.899   0.895  0.1169  0.0556  0.1571
    1W        W56247  12.651  17.280   1.101 -0.2690 -0.0985  0.1822
    1W        W56248   1.556   6.584   0.059 -0.0612  0.1080  0.1651
    1W        W56249   2.760  20.638   7.430 -0.1114 -0.2035  0.1631
    1W        W56250   9.419  11.579   1.286  0.0349  0.1782  0.4380
    1W        W56251   0.810  10.298   0.223 -0.0846  0.4787 -0.2093
    1W        W56252   2.410   6.817   7.339  0.2187 -0.1046  0.1255
    1W        W56253  25.605  15.302   9.298 -0.0418  0.0116 -0.0541
    1W        W56254  16.488  20.701   5.807 -0.0771 -0.0625 -0.1206
    1W        W56255  20.103  20.774   1.062 -0.0056  0.1043 -0.2517
    1W        W56256  21.303  16.734   7.666 -0.2263  0.1194  0.0859
    1W        W56257  17.198  24.766   7.968  0.0227 -0.0643 -0.0706
    1W        W56258  29.590  11.043   7.669 -0.1745  0.1836 -0.1679
    1W        W56259   8.076  15.798   1.434 -0.3862 -0.1789  0.3069
    1W        W56260  21.464  26.005   2.555  0.0661 -0.0400  0.2291
    1W        W56261   7.212   9.070   7.595 -0.1555 -0.1342  0.1191
    1W        W56262  26.827   3.925   2.579  0.0219  0.1108 -0.2379
    1W        W56263  20.646  22.274   2.742  0.3021  0.0967 -0.4384
    1W        W56264   5.238   8.020   0.379 -0.1217 -0.0611  0.0480
    1W        W56265  20.169  24.276   6.411 -0.0196  0.0705 -0.0710
    1W        W56266  11.521   9.035   9.029 -0.0832  0.1625 -0.1004
    1W        W56267  10.547   5.705   3.789  0.0871  0.1265  0.2406
    1W        W56268   5.535   5.105   2.849  0.1379  0.1002 -0.0809
    1W        W56269  27.018  12.760   0.709  0.3657  0.1907 -0.0046
    1W        W56270   6.874   1.303   7.034 -0.1545  0.0832 -0.1997
    1W        W56271  16.129   7.300   2.324 -0.4874 -0.2759  0.1174
    1W        W56272   6.875  14.581   1.037  0.2711  0.1317  0.0870
    1W        W56273  15.298  21.660   6.750  0.2069 -0.0467 -0.2675
    1W        W56274  19.768  12.867   2.140 -0.2056  0.1372  0.1093
    1W        W56275  14.547  15.663   1.251  0.1685  0.0711  0.3570
    1W        W56276  17.505   8.519   9.507  0.2976 -0.0661  0.0278
    1W        W56277  16.780  10.884   0.748 -0.3084  0.3652 -0.1466
    1W        W56278   1.450   4.082   1.565 -0.1371  0.0375  0.0591
    1W        W56279  13.077  10.340   6.877  0.1012  0.2402 -0.1567
    1W        W56280  23.022  23.285   0.556 -0.0880 -0.0417  0.0912
    1W        W56281   7.792   9.295   6.984 -0.1094 -0.0786  0.0166
    1W        W56282  19.965  28.526   8.014 -0.0406  0.2493 -0.0702
    1W        W56283  24.387  23.760   7.763 -0.1290 -0.0880 -0.0442
    1W        W56284  17.077   7.529   8.681 -0.1841  0.0866 -0.1561
    1W        W56285   5.525  16.974   1.193  0.0262  0.1044  0.2717
    1W        W56286   6.643   4.735   8.147 -0.2286 -0.4118 -0.0384
    1W        W56287  16.759  12.874   0.346 -0.0475 -0.3129  0.1658
    1W        W56288   1.308  13.516   6.752 -0.1425  0.1322 -0.2312
    1W        W56289   1.328  28.435   0.602  0.1391  0.1640 -0.1109
    1W        W56290   5.164  14.701   1.668 -0.3581  0.1715  0.4412
    1W        W56291   5.738   1.392   6.801  0.1806 -0.2893  0.1751
    1W        W56292  12.341  21.896   9.455 -0.0953 -0.2334  0.4655
    1W        W56293   4.383  29.206   7.012  0.3336  0.0805 -0.0151
    1W        W56294  12.510  19.442   7.620  0.1333  0.3794 -0.0202
    1W        W56295  22.383  22.654   1.397  0.1094  0.1264  0.0005
    1W        W56296  21.922  10.328   2.285  0.1687  0.3901  0.3009
    1W        W56297  24.291   8.001   9.207 -0.0717 -0.1020 -0.0888
    1W        W56298  28.802  28.157   0.775 -0.0320  0.2547  0.0227
    1W        W56299   2.679  20.898   1.475  0.2336 -0.1044 -0.3195
    1W        W56300  19.321   8.106   1.731  0.0835 -0.1674  0.0517
    1W        W56301  26.326  26.453   1.822 -0.2669  0.3131  0.2806
    1W        W56302  19.127  10.975   3.241 -0.4418  0.0367 -0.0731
    1W        W56303   6.340  17.125   5.940 -0.1395  0.0856  0.1805
    1W        W56304   4.361   9.546   9.101 -0.0506  0.4022  0.0369
    1W        W56305  29.510  20.635   6.699  0.0272  0.2865 -0.0749
    1W        W56306  15.852   9.748   1.483 -0.0686 -0.3393 -0.2204
    1W        W56307   7.304   3.987   1.819 -0.1751 -0.2834  0.0026
    1W        W56308   5.684  10.027   9.157 -0.3216 -0.0149  0.2292
    1W        W56309  24.382  11.349   6.796 -0.2140 -0.0445  0.3163
    1W        W56310  24.977   8.770   0.955 -0.0077 -0.0880  0.2540
    1W        W56311   3.065   7.195   0.063 -0.4309 -0.1154 -0.1214
    1W        W56312   9.296  23.773   0.037  0.1030  0.3302 -0.1029
    1W        W56313  25.602  26.024   1.699  0.1027  0.2472 -0.1402
    1W        W56314  28.301  21.561   5.968  0.2272  0.0549 -0.0257
    1W        W56315  14.566  26.993   1.854  0.3682 -0.2204  0.0828
    1W        W56316  22.284  11.315   8.921  0.2269  0.2020  0.0264
    1W        W56317  21.283  24.524   8.930  0.1773 -0.2108 -0.1307
    1W        W56318   1.513   2.402   9.447  0.0685  0.3462 -0.1186
    1W        W56319   5.361  20.664   0.667  0.0404 -0.4263  0.0605
    1W        W56320   9.105   7.026   2.135 -0.0526 -0.0675  0.0415
    1W        W56321  17.927   4.409   2.210  0.0001  0.0374 -0.1608
    1W        W56322   9.411  14.191   9.289  0.0068 -0.0132  0.1174
    1W        W56323  23.407  26.623   0.591  0.1278  0.1442 -0.1233
    1W        W56324  25.833  12.659   9.338  0.0875  0.1687  0.0511
    1W        W56325  29.655  28.962   1.178  0.0547 -0.0791  0.1104
    1W        W56326  11.756  24.530   0.783  0.3377  0.1064  0.1193
    1W        W56327  13.189  29.427   0.482  0.0698 -0.0040  0.2071
    1W        W56328  29.717  24.775   8.901  0.0076 -0.0754 -0.2569
    1W        W56329   6.457   2.404   9.473 -0.0454  0.0069  0.0577
    1W        W56330   1.811  18.780   2.662 -0.2001  0.2378  0.0922
    1W        W56331  10.157  21.961   6.277  0.2134  0.0038 -0.3073
    1W        W56332   1.228  23.461   0.757  0.3026  0.1523  0.4671
    1W        W56333  11.666   3.436   4.522 -0.0234 -0.1078 -0.0277
    1W        W56334  27.046   2.598   1.480  0.0761  0.1774 -0.3965
    1W        W56335   1.300   7.750   0.774  0.3189  0.1622  0.0650
    1W        W56336  29.198  17.640   9.106  0.0995  0.2217 -0.0767
    1W        W56337  20.368  19.759   6.622 -0.0458  0.0000  0.2823
    1W        W56338  18.939   8.958   2.589 -0.2277 -0.0472 -0.2990
    1W        W56339   7.344  22.613   6.553 -0.0180  0.0072 -0.1529
    1W        W56340  16.193  21.123   7.133 -0.0467  0.4180 -0.0131
    1W        W56341   9.472   7.229   0.246 -0.1673  0.1037 -0.0262
    1W        W56342   8.321  15.807   1.907 -0.1395  0.2678 -0.2232
    1W        W56343  21.993   0.744   1.251  0.1396 -0.0926  0.1062
    1W        W56344  18.838  18.148   0.708  0.0654 -0.2269 -0.1875
    1W        W56345   2.154  28.464   7.191  0.1700 -0.0719  0.3026
    1W        W56346   1.732  27.780   8.036 -0.1617  0.3400  0.1010
    1W        W56347  14.223  22.578   0.630  0.0482  0.3402 -0.0335
    1W        W56348   6.736  12.610   9.212  0.0162  0.0688  0.1079
    1W        W56349  22.121  13.959   1.930 -0.4810 -0.0723 -0.0537
    1W        W56350   4.239  20.259   6.147  0.0391 -0.2134 -0.1313
    1W        W56351   6.302  15.030   8.115 -0.0528 -0.0640  0.1098
    1W        W56352  24.866  21.789   8.168  0.0717  0.1834 -0.0777
    1W        W56353   9.184  27.358   2.516  0.0576 -0.1530  0.1398
    1W        W56354  26.451  10.613   7.102  0.3024  0.1638 -0.2737
    1W        W56355   9.491  24.501   9.419 -0.0622  0.0892 -0.0127
    1W        W56356   1.099  11.038   9.128 -0.1341  0.2241  0.2085
    1W        W56357   5.622  17.745   8.686 -0.3493 -0.1378  0.3192
    1W        W56358   6.429  23.834   2.572 -0.1363 -0.2434 -0.1055
    1W        W56359  24.524   7.262   1.478 -0.3629  0.0906 -0.3507
    1W        W56360   4.669  15.568   1.684 -0.2080 -0.3088  0.0095
    1W        W56361   5.964  20.723   7.039 -0.3552 -0.1793  0.1596
    1W        W56362   4.523  26.629   0.264  0.2764  0.0274  0.5287
    1W        W56363  21.280  16.239   7.831 -0.3292 -0.1521 -0.1134
    1W        W56364  14.444  10.581   1.641  0.2736 -0.1835  0.1618
    1W        W56365  29.011  23.184   1.472 -0.2293 -0.0213  0.3971
    1W        W56366   4.697  23.013   9.032  0.2341  0.0022  0.2026
    1W        W56367  17.533  14.579   9.129 -0.1895 -0.0022  0.3636
    1W        W56368   6.305  14.880   9.221 -0.0321  0.0436 -0.1193
    1W        W56369   6.303  18.197   2.373 -0.0529  0.2375  0.0913
    1W        W56370   9.979  26.609   1.253  0.0645 -0.1607 -0.0388
    1W        W56371  16.202   2.474   3.313 -0.1191  0.1615  0.3485
    1W        W56372   4.775  16.275   6.970  0.2379  0.1287  0.1331
    1W        W56373  12.667   6.002   0.258 -0.0215  0.1254 -0.0199
    1W        W56374  11.052  19.841   6.137  0.0674  0.1467 -0.3028
    1W        W56375  18.814   4.314   2.377  0.0766 -0.1091 -0.0691
    1W        W56376  23.358  24.166   2.588  0.0559 -0.1828 -0.1013
    1W        W56377   4.571  11.735   3.001 -0.0210  0.0579 -0.4048
    1W        W56378  17.015   7.013   2.144  0.0079 -0.0142  0.0622
    1W        W56379  26.140   6.120   8.686 -0.0039  0.0935  0.1989
    1W        W56380  23.715  24.811   2.767  0.4633 -0.0658 -0.0739
    1W        W56381  19.597  13.336   1.304 -0.3036  0.0023  0.0253
    1W        W56382   7.759  14.828   1.353 -0.1122 -0.0014  0.0849
    1W        W56383  18.071   4.938   2.056 -0.0328 -0.1460  0.1642
    1W        W56384  10.100  16.301   3.019 -0.3147  0.2233  0.0415
    1W        W56385   2.220   4.612   8.967  0.0929 -0.1893  0.0372
    1W        W56386   7.616   2.728   7.807  0.0835  0.0713  0.0879
    1W        W56387   3.614   3.156   1.099  0.3065 -0.1512  0.0142
    1W        W56388  18.205  25.001   7.768 -0.2083 -0.2171  0.0877
    1W        W56389  25.927  14.006   7.697 -0.0946  0.3318  0.2310
    1W        W56390   4.975  13.853   7.250 -0.0853 -0.2192 -0.1077
    1W        W56391  23.715   3.890   2.301 -0.0214  0.2030  0.0082
    1W        W56392   2.236   1.899   2.844  0.2969 -0.3438  0.0907
    1W        W56393  24.024  23.438   0.788  0.2662  0.0086 -0.1777
    1W        W56394   4.035  14.794   8.769  0.0450  0.0208  0.1855
    1W        W56395  18.925  19.085   2.138 -0.2131 -0.1413 -0.4027
    1W        W56396   2.703  10.131   0.619  0.1284 -0.1639  0.1146
    1W        W56397  12.596  26.669   1.757 -0.2318  0.5089  0.1005
    1W        W56398  28.523  18.502   7.178  0.1973  0.0581  0.0041
    1W        W56399  19.643  12.032   8.925  0.0568  0.2132  0.3155
    1W        W56400  26.543  10.379   1.301 -0.2325 -0.1530 -0.0599
    1W        W56401  25.200  24.203   9.280  0.1394 -0.2551  0.1456
    1W        W56402  16.103  29.193   3.464  0.1555  0.0229 -0.0631
    1W        W56403   3.549  29.634   1.171 -0.0032 -0.2353 -0.0654
    1W        W56404  17.073  10.446   1.911  0.1302 -0.0187 -0.0223
    1W        W56405  20.902  15.748   2.202 -0.0990  0.3120 -0.0762
    1W        W56406   7.695   1.910   0.197 -0.1212 -0.2451  0.2886
    1W        W56407  22.247  25.322   6.486  0.0031  0.1296 -0.0479
    1W        W56408  26.634  23.251   7.039 -0.0619 -0.0009 -0.2284
    1W        W56409  26.297  19.006   1.520 -0.2106 -0.2990 -0.0876
    1W        W56410  18.008  25.983   5.989  0.0956 -0.2021 -0.2766
    1W        W56411  24.768  20.571   1.621  0.1831 -0.2790 -0.2044
    1W        W56412   5.452   1.009   1.148 -0.0075  0.0875 -0.2851
    1W        W56413   2.373  25.772   1.920 -0.1453  0.2729  0.0288
    1W        W56414  19.942  19.714   1.160 -0.1481 -0.3012  0.3565
    1W        W56415  20.091  17.381   6.383  0.0389 -0.3565  0.0564
    1W        W56416  22.750  25.708   2.190  0.0904 -0.0680 -0.2089
    1W        W56417   9.623  29.200   9.146 -0.1508 -0.0582  0.1845
    1W        W56418   9.479  25.960   8.504 -0.2089  0.1178  0.1078
    1W        W56419   7.491  11.096   3.103 -0.0257 -0.0078 -0.0844
    1W        W56420   6.011  25.342   0.342  0.0463 -0.1496  0.1100
    1W        W56421  16.855   0.631   8.050 -0.1255  0.1357 -0.0929
    1W        W56422  11.829   4.249   8.998 -0.1372  0.1305  0.2845
    1W        W56423  10.178  15.044   5.675 -0.2608 -0.0210 -0.0536
    1W        W56424  26.388  26.228   7.049  0.0988  0.5692 -0.0908
    1W        W56425   0.994  19.468   8.167  0.1362 -0.0377  0.1440
    1W        W56426   1.735  27.811   1.396  0.0428 -0.0208  0.2593
    1W        W56427  11.890  15.315   1.206  0.1035  0.6050  0.0876
    1W        W56428   6.029  18.052   7.045  0.1914 -0.0604 -0.1388
    1W        W56429  10.193  27.864   8.537  0.0296  0.0433  0.1821
    1W        W56430  28.170   8.725   1.936  0.0357  0.0673  0.2714
    1W        W56431  10.088  11.301   8.627 -0.1136  0.2576  0.0907
    1W        W56432  22.929  17.694   2.579 -0.0336 -0.0388 -0.2523
    1W        W56433   5.878  20.824   1.782 -0.3019  0.0518  0.3156
    1W        W56434  17.122  29.044   0.007  0.1011 -0.0645  0.1492
    1W        W56435  24.017  12.437   6.803  0.0111 -0.1541 -0.1233
    1W        W56436  19.838  29.744   0.334  0.0198 -0.1523 -0.1087
    1W        W56437  24.789  29.060   2.035  0.2715 -0.1252 -0.0280
    1W        W56438  11.870  12.733   1.327  0.0179  0.2804 -0.2533
    1W        W56439  27.748  28.153   1.583 -0.0368 -0.0201 -0.2764
    1W        W56440   8.827  27.201   8.583 -0.3850 -0.2889 -0.1068
    1W        W56441  14.469   6.855   3.272 -0.0207  0.2143  0.0798
    1W        W56442  10.976  29.190   0.623  0.1443 -0.2147 -0.0282
    1W        W56443  13.166  28.091   9.017 -0.1881  0.2441  0.1268
    1W        W56444  25.914  24.741   9.198 -0.1990 -0.1131  0.0052
    1W        W56445  24.095   6.455   1.068  0.1511 -0.0519  0.2203
    1W        W56446   8.186   3.986   9.509  0.0436 -0.0503  0.1398
    1W        W56447  25.849   6.793   7.304  0.1420 -0.0459 -0.0160
    1W        W56448  14.774  17.248   0.136  0.2808 -0.1221 -0.2080
    1W        W56449  13.195  12.178   1.618 -0.0130  0.0803 -0.1358
    1W        W56450  24.477  11.175   8.045 -0.0165 -0.2741  0.0685
    1W        W56451   1.723   5.677   9.487 -0.0941  0.0900  0.3867
    1W        W56452  15.057   5.777   9.187  0.1250 -0.0856 -0.0732
    1W        W56453  17.669  17.435   1.709  0.0602 -0.3352 -0.0226
    1W        W56454  23.788   8.382   7.763 -0.3185 -0.0759 -0.1396
    1W        W56455   0.191  28.176   7.721 -0.0865  0.2637  0.0770
    1W        W56456  17.842   1.839   1.719  0.3563  0.4707  0.0752
    1W        W56457  15.371  25.398   8.476 -0.3024  0.0378  0.2888
    1W        W56458  14.695  20.402   6.808 -0.0912 -0.0163 -0.3430
    1W        W56459  23.294  12.085   7.833  0.1633 -0.5635 -0.1454
    1W        W56460  23.072   6.791   2.336 -0.1569 -0.1535 -0.2559
    1W        W56461   3.599   2.830   8.886  0.0816  0.0512 -0.2299
    1W        W56462   9.552   3.682   3.014  0.0958  0.1800  0.1482
    1W        W56463  14.362   4.392   1.405  0.2158  0.0281 -0.2896
    1W        W56464   5.909   2.504   1.097 -0.0752 -0.2095  0.1839
    1W        W56465   9.254  20.355   1.153 -0.2575  0.0625 -0.2507
    1W        W56466  20.950   5.839   8.727  0.1898  0.0006 -0.0744
    1W        W56467   6.389  20.296   0.345  0.1289 -0.0925  0.1054
    1W        W56468   5.135  29.357   2.605  0.3675  0.2970  0.1865
    1W        W56469  10.494  18.298   7.833  0.2127 -0.0024  0.0840
    1W        W56470  11.001  18.408   2.731 -0.0489 -0.0019  0.2083
    1W        W56471   7.039  27.775   6.256 -0.1168 -0.1517  0.0545
    1W        W56472   6.597  20.367   8.973  0.2392 -0.0079  0.3324
    1W        W56473  27.277  18.446   9.047  0.1320 -0.0634 -0.1570
    1W        W56474  23.926  19.022   9.278  0.3679  0.1117 -0.0211
    1W        W56475  26.217   8.043   9.326 -0.2913  0.0544  0.0097
    1W        W56476   4.925  20.906   1.415  0.1610 -0.0713  0.0576
    1W        W56477  22.343   5.179   8.357  0.2003  0.2898  0.0378
    1W        W56478  13.203  18.023   8.236  0.3446 -0.0654  0.0092
    1W        W56479   8.168   2.895   7.252 -0.2246 -0.0478  0.0040
    1W        W56480   3.846  18.292   0.428 -0.0259  0.0874 -0.0049
    1W        W56481  15.186  12.451   9.218  0.0639  0.0048  0.1159
    1W        W56482   6.875   5.030   8.560 -0.0519 -0.3519 -0.1195
    1W        W56483  27.465   3.409   7.029 -0.0172  0.1510  0.4239
    1W        W56484  17.160  14.948   7.350  0.0442  0.3662  0.1120
    1W        W56485  19.872  21.269   6.450 -0.3343  0.2081 -0.0367
    1W        W56486   9.462  10.942   6.883 -0.0534 -0.0979  0.0992
    1W        W56487   7.878  29.372   7.529  0.2612 -0.0824  0.0231
    1W        W56488   3.420   4.839   8.632 -0.2553  0.2744  0.1909
    1W        W56489  18.042  14.698   6.434 -0.0652 -0.0078  0.2689
    1W        W56490   9.843   2.273   7.376 -0.0578  0.1867 -0.1711
    1W        W56491   0.677   8.463   7.061  0.3771  0.0213  0.0791
    1W        W56492  26.265  25.201   2.343  0.0375  0.0782  0.0699
    1W        W56493  23.784   2.737   9.258 -0.0898 -0.0462 -0.1504
    1W        W56494  25.972  16.942   9.114  0.0679  0.0429 -0.1390
    1W        W56495   1.367  12.704   8.604 -0.1644  0.2071  0.1591
    1W        W56496   7.410  19.127   9.199  0.3311 -0.0158 -0.1350
    1W        W56497  19.063  22.266   7.727 -0.1161 -0.0516  0.0896
    1W        W56498  22.781  25.551   9.085  0.0101 -0.0085 -0.1041
    1W        W56499  23.120   4.906   1.824  0.2172 -0.1017 -0.2644
    1W        W56500   2.500   8.328   1.916 -0.0254  0.4384 -0.1145
    1W        W56501  23.812   1.601   0.026 -0.1953 -0.0017  0.3281
    1W        W56502  28.136  13.148   0.883 -0.2690  0.0685  0.1560
    1W        W56503   6.210  19.344   6.581 -0.2400 -0.0663  0.0027
    1W        W56504  17.108  29.534   1.628 -0.0375 -0.1655  0.1559
    1W        W56505   1.469  18.576   8.098  0.2268 -0.0184 -0.2313
    1W        W56506  19.302  22.876   6.337 -0.1435  0.1198  0.1233
    1W        W56507   0.804  20.394   0.652  0.2370  0.0746  0.3028
    1W        W56508  19.828  26.931   7.528 -0.1202 -0.0901 -0.0588
    1W        W56509  22.698  20.521   1.883  0.0022  0.0671 -0.2535
    1W        W56510  11.612   1.882   7.250 -0.0342  0.0643  0.2078
    1W        W56511  19.663   3.068   1.401  0.1567  0.0424  0.1892
    1W        W56512   4.338   7.965   7.499  0.1459  0.1944 -0.2980
    1W        W56513  29.172  19.002   8.277 -0.0695  0.0992  0.1307
    1W        W56514  25.069   7.430   0.875  0.0247 -0.1049  0.3045
    1W        W56515  19.840  15.768   6.831 -0.2016 -0.0357 -0.1152
    1W        W56516  21.578  27.299   8.430 -0.2224 -0.2769 -0.0868
    1W        W56517  11.375  16.174   9.456 -0.2337 -0.0620 -0.0520
    1W        W56518  15.666  22.642   5.407  0.1041 -0.0024  0.2143
    1W        W56519  25.740  12.204   7.458  0.0125  0.3495 -0.1417
    1W        W56520  10.527   8.025   8.987  0.3994  0.1214  0.0035
    1W        W56521  16.913  22.297   7.124  0.0032 -0.1012  0.2150
    1W        W56522  16.366  14.699   9.108 -0.1326 -0.2200  0.2363
    1W        W56523  27.981  29.481   1.367  0.0077 -0.0304 -0.0003
    1W        W56524  12.806  29.616   8.604 -0.1190  0.0461  0.1067
    1W        W56525  25.773  14.866   2.054  0.2333  0.0857 -0.2169
    1W        W56526  16.287   2.629   1.865 -0.0949 -0.0523 -0.1575
    1W        W56527  26.999   2.557   2.329  0.3228  0.0403 -0.1236
    1W        W56528  21.390  15.572   8.577 -0.0728 -0.2601  0.1902
    1W        W56529  12.594  24.836   8.146 -0.0344  0.2048  0.2240
    1W        W56530  11.316   4.690   0.388  0.1058  0.1272 -0.1490
    1W        W56531  21.202  11.829   1.833 -0.0428  0.1158 -0.0325
    1W        W56532   1.151  12.718   7.472 -0.1998 -0.1814  0.1706
    1W        W56533   8.581  13.501   8.217  0.0288 -0.0421 -0.1212
    1W        W56534   2.255  11.197   7.317  0.1929 -0.1874 -0.2458
    1W        W56535  12.295   6.006   1.982 -0.0846 -0.3911 -0.0858
    1W        W56536  12.951   9.294   6.958  0.1549  0.0459  0.1398
    1W        W56537  24.594  10.020   0.164  0.1205 -0.2875 -0.0771
    1W        W56538   5.138   6.070   8.137 -0.2878 -0.1792  0.0858
    1W        W56539  16.945   7.044   1.234 -0.3566 -0.0607  0.0448
    1W        W56540  29.312  11.423   8.432 -0.3021 -0.0329  0.2477
    1W        W56541  12.967  17.069   2.495 -0.1238 -0.2310 -0.1516
    1W        W56542  14.044   4.283   1.779 -0.0986 -0.1175 -0.0110
    1W        W56543   5.462  18.615   8.543 -0.4235 -0.0918 -0.0535
    1W        W56544  18.885  17.680   7.574  0.2153 -0.0962  0.0879
    1W        W56545  23.132   4.903   0.151  0.0856 -0.2236 -0.0068
    1W        W56546  24.242   5.078   3.755 -0.1296  0.1108  0.0980
    1W        W56547  22.548  25.059   0.890  0.0392  0.0216 -0.1072
    1W        W56548  17.938  26.525   0.137 -0.0328 -0.3125  0.0529
    1W        W56549   5.371   4.772   7.292 -0.1116 -0.0485  0.0212
    1W        W56550   1.234  26.920   5.785  0.1740  0.1692  0.1975
    1W        W56551   5.495  19.074   0.158  0.1924 -0.0465 -0.0186
    1W        W56552  24.571  20.389   7.334 -0.0999 -0.2329 -0.1379
    1W        W56553  26.602  12.071   0.647  0.0699  0.0813 -0.0526
    1W        W56554   1.606   1.158   8.005 -0.1735 -0.1465 -0.0570
    1W        W56555  20.075  17.862   6.311 -0.1187 -0.2526  0.0374
    1W        W56556   9.231  15.219   5.869  0.1519 -0.0763  0.1379
    1W        W56557   9.819   0.705   8.118 -0.0882  0.0643 -0.1450
    1W        W56558   2.431  12.181   8.299 -0.1389  0.0129  0.2556
    1W        W56559  21.849   1.707   8.862  0.0576  0.0400 -0.0838
    1W        W56560  11.889  24.275   8.339 -0.0817 -0.0602  0.3367
    1W        W56561  22.494  22.503   0.747 -0.1366  0.1705 -0.2138
    1W        W56562  29.647   4.989   1.290 -0.4347  0.4868 -0.1090
    1W        W56563  15.178  27.445   5.938  0.2896  0.0161 -0.3503
    1W        W56564  14.588   2.205   2.077 -0.1116  0.0707 -0.4724
    1W        W56565  15.924  14.596   7.284  0.3376 -0.0747 -0.2010
    1W        W56566   7.650  14.575   7.055  0.1227  0.1731  0.2356
    1W        W56567  26.809   7.813   8.949  0.2422  0.0260 -0.2155
    1W        W56568  28.317   2.510   9.404 -0.3630 -0.0832 -0.0672
    1W        W56569  27.694  20.828   0.214 -0.2280 -0.3391 -0.0047
    1W        W56570   6.880   1.888   0.127 -0.2931  0.1398  0.1329
    1W        W56571  24.111  27.850   2.416 -0.1007 -0.2491  0.1727
    1W        W56572  20.622  26.635   8.170  0.2715 -0.1271  0.0348
    1W        W56573  25.716  25.750   2.749  0.1968  0.2742  0.1374
    1W        W56574   9.866  27.180   2.597 -0.1302 -0.1531  0.2513
    1W        W56575  11.499   5.106   1.786 -0.2536 -0.0384  0.5033
    1W        W56576   5.675  27.817   8.319 -0.2732  0.1105  0.3033
    1W        W56577  26.159  16.927   7.819  0.0032  0.3607 -0.1403
    1W        W56578  10.153   8.510   5.983 -0.0245 -0.0178  0.0093
    1W        W56579  27.220  17.457   6.756  0.0996  0.0934  0.0538
    1W        W56580   5.719  22.158   8.367 -0.2661  0.0732  0.0596
    1W        W56581  11.374  18.321   0.975 -0.0249  0.0114 -0.0990
    1W        W56582   9.752  20.296   0.947  0.3269  0.3147  0.0432
    1W        W56583  17.290  28.550   2.524  0.0755 -0.0831  0.1287
    1W        W56584  26.362  20.191   1.085 -0.2085 -0.2643  0.1926
    1W        W56585   6.138   1.428   1.530  0.1738 -0.2927  0.3455
    1W        W56586   5.233  27.114   7.712 -0.0864 -0.1138  0.0831
    1W        W56587  27.080  25.547   7.374 -0.0374  0.0641  0.0058
    1W        W56588  25.358  26.621   8.027 -0.0264 -0.0690  0.1477
    1W        W56589  19.890  14.908   8.591  0.0455 -0.1327  0.3644
    1W        W56590  19.552   6.985   3.115 -0.1019 -0.1122  0.0464
    1W        W56591  15.207   1.171   4.232 -0.0267  0.0501 -0.0988
    1W        W56592  23.698  20.115   0.763  0.0450 -0.2647  0.0097
    1W        W56593   3.681  10.847   8.975  0.2453  0.5762  0.1446
    1W        W56594   3.244   2.540   2.651  0.0650  0.0901  0.3524
    1W        W56595  16.632  16.386   6.362 -0.3065  0.1296  0.1454
    1W        W56596  19.732  26.229   6.925  0.2868 -0.0370  0.0850
    1W        W56597   3.672  27.463   1.521  0.2029 -0.1019  0.1658
    1W        W56598  11.316  27.488   2.941 -0.2205  0.0463  0.0678
    1W        W56599   7.214  29.302   7.298 -0.1368 -0.1671  0.2668
    1W        W56600   6.117   3.541   8.549  0.1572  0.0582 -0.0504
    1W        W56601  20.433  24.225   8.023  0.0045  0.0685 -0.0188
    1W        W56602  29.329  29.220   1.607 -0.0087  0.1113 -0.0303
    1W        W56603  26.832  12.470   9.270 -0.0175 -0.3785 -0.1037
    1W        W56604  11.247  25.589   1.234  0.1376  0.1342  0.0088
    1W        W56605   0.429  24.199   0.138 -0.0192  0.1242  0.0232
    1W        W56606   5.216   6.793   7.335  0.2551 -0.1378  0.0069
    1W        W56607   4.712  23.049   1.936 -0.0116  0.3728  0.3326
    1W        W56608  16.705  13.801   9.349  0.0000  0.1417  0.0922
    1W        W56609   1.818  28.980   8.889  0.2361  0.0788  0.0758
    1W        W56610   4.571  28.568   8.714 -0.1120  0.0002  0.0011
    1W        W56611  23.081  19.926   2.438 -0.0823  0.4391 -0.1582
    1W        W56612   3.739  13.163   7.667  0.0598 -0.0605 -0.0132
    1W        W56613  14.761   9.785   8.240  0.2188  0.0838 -0.1367
    1W        W56614  19.234   9.722   3.247  0.2829 -0.0627 -0.0919
    1W        W56615  17.805   0.588   1.778  0.0907 -0.3255 -0.0633
    1W        W56616  10.886  24.761   6.857 -0.1950  0.4032 -0.1174
    1W        W56617  11.721  18.713   7.878 -0.1472  0.0564  0.2494
    1W        W56618  13.778  26.179   2.626  0.3704  0.1441  0.0675
    1W        W56619   1.114  24.726   7.777 -0.0913 -0.0761  0.0190
    1W        W56620  23.720  20.776   2.495  0.0284  0.0489 -0.2217
    1W        W56621   5.534   6.016   7.091  0.2769  0.3836  0.1215
    1W        W56622   3.600  21.804   0.812 -0.2486 -0.4481 -0.0234
    1W        W56623   4.096   9.151   2.412  0.2621  0.1916  0.0730
    1W        W56624   1.632  29.461   8.902 -0.0319 -0.0013  0.1534
    1W        W56625  25.594  28.000   7.588  0.0423  0.2196  0.3197
    1W        W56626   0.467   1.097   0.158 -0.1649  0.1572  0.0273
    1W        W56627  19.102  23.623   1.453 -0.1946  0.2009  0.0806
    1W        W56628   4.547  11.926   7.746  0.2078 -0.0673  0.0747
    1W        W56629  12.674  19.966   6.833  0.0661 -0.0622  0.0397
    1W        W56630  17.970  25.946   1.023 -0.0881 -0.1395  0.2783
    1W        W56631   0.337   5.276   7.832  0.0993 -0.0138  0.3588
    1W        W56632   1.569  23.158   8.387  0.1141  0.0570 -0.3882
    1W        W56633  12.486  13.430   1.154 -0.1555  0.2142 -0.0490
    1W        W56634   3.621  10.344   9.218 -0.0772  0.0665  0.0458
    1W        W56635   9.143  12.048   9.107  0.0737  0.0426  0.2844
    1W        W56636  12.118  15.749   0.451  0.0272 -0.1516 -0.1279
    1W        W56637  20.754   5.001   7.718 -0.0522 -0.1596 -0.0098
    1W        W56638  20.697   8.138   2.050 -0.1995  0.1814 -0.1707
    1W        W56639   0.879  15.585   2.820  0.1212 -0.1231 -0.2972
    1W        W56640  26.075  18.277   0.094 -0.0055 -0.0778  0.1408
    1W        W56641  27.234   5.173   8.249  0.1926 -0.3215  0.2297
    1W        W56642   8.144   3.279   6.963 -0.1672 -0.1538  0.2917
    1W        W56643   8.198   2.098   0.073  0.1232 -0.1076  0.2593
    1W        W56644  13.924  11.001   0.905  0.5743  0.0382  0.0779
    1W        W56645  13.831  21.690   8.154 -0.2296  0.1372  0.0484
    1W        W56646  28.167   8.982   2.504 -0.1327 -0.2469  0.3318
    1W        W56647   0.996  11.675   7.286 -0.0667  0.2741 -0.0028
    1W        W56648  22.522   4.392   0.066  0.0206 -0.2143 -0.0457
    1W        W56649  19.214  16.587   6.830 -0.2590 -0.1159  0.1332
    1W        W56650  29.854  26.511   0.321  0.1486 -0.0534  0.2954
    1W        W56651   3.901  13.103   8.544  0.0132 -0.0955  0.0955
    1W        W56652  27.812  19.519   7.847 -0.2235 -0.1952  0.1044
    1W        W56653  27.171   9.164   8.075 -0.0591  0.2029  0.2587
    1W        W56654  16.890  25.128   6.839 -0.1049 -0.2668 -0.3864
    1W        W56655   5.883  10.771   6.722 -0.0992  0.1515 -0.0597
    1W        W56656  10.877   6.854   3.152  0.1596  0.0389  0.1111
    1W        W56657   6.590  18.040   8.009 -0.1237 -0.0038 -0.0048
    1W        W56658  20.476  29.370   8.963  0.2105 -0.0541 -0.0166
    1W        W56659   1.094   3.091   3.501 -0.1195  0.0151  0.0811
    1W        W56660  26.584  20.929   2.239 -0.1575 -0.1279 -0.1081
    1W        W56661  23.955  25.177   7.889 -0.1920  0.0121 -0.3057
    1W        W56662  12.315   1.326   1.600 -0.2468  0.0687 -0.2907
    1W        W56663  13.350  17.625   6.481  0.0224  0.0299 -0.0041
    1W        W56664   1.568   4.365   6.556 -0.0319 -0.0319  0.0487
    1W        W56665   8.237  22.608   0.483 -0.1055 -0.0325 -0.0957
    1W        W56666   6.169  26.258   1.068 -0.0377 -0.1276 -0.1589
    1W        W56667   5.215   3.749   3.080  0.1801 -0.0323  0.0779
    1W        W56668   9.422  23.129   1.390 -0.2881  0.1181  0.2142
    1W        W56669  25.376  22.953   3.394 -0.2569 -0.1702  0.1401
    1W        W56670  18.144   1.895   1.276 -0.1508  0.2918  0.0700
    1W        W56671   6.354  14.103   6.516 -0.0303  0.0349  0.1297
    1W        W56672   6.829  22.414   2.318 -0.2285 -0.1129 -0.0630
    1W        W56673  12.700  27.219   8.925  0.0049 -0.1618  0.0006
    1W        W56674  26.786  22.801   7.750 -0.0993  0.1127 -0.3889
    1W        W56675  17.965  17.779   0.319  0.1204 -0.3203 -0.0130
    1W        W56676   3.061  16.833   6.909 -0.1395  0.3516 -0.0340
    1W        W56677   9.203   9.865   7.692  0.1204 -0.3126 -0.0824
    1W        W56678   1.767  11.242   7.193  0.0621 -0.0243 -0.1251
    1W        W56679  22.672  11.199   1.535 -0.0392 -0.0185  0.0061
    1W        W56680  11.107  14.435   8.439 -0.1090 -0.1186 -0.1609
    1W        W56681  19.998   4.705   8.987  0.0915  0.0644 -0.0587
    1W        W56682   7.855  14.765   0.445  0.1633 -0.0382  0.0888
    1W        W56683   4.313  15.675   8.193  0.0003  0.0192  0.0787
    1W        W56684  17.976   1.238   9.310  0.0192 -0.0460  0.0314
    1W        W56685  16.764  25.128   1.068  0.0438 -0.0562  0.1028
    1W        W56686  17.163  24.688   7.008 -0.0794  0.0975 -0.0757
    1W        W56687  12.190  25.225   2.786  0.1259  0.0633 -0.1519
    1W        W56688   6.026  23.884   0.796  0.0339  0.0425  0.2586
    1W        W56689   0.603  24.246   1.933 -0.0075 -0.1351  0.0590
    1W        W56690   9.292   5.102   4.040  0.0261 -0.0926  0.0006
    1W        W56691  15.975  11.423   2.243  0.0417  0.1162  0.0722
    1W        W56692  23.513  12.135   0.487  0.0316  0.1398  0.2867
    1W        W56693  15.143  15.895   9.323  0.0509 -0.0556  0.4720
    1W        W56694   9.608  22.843   6.511  0.4288  0.0184  0.3187
    1W        W56695  29.755  20.076   1.850 -0.0359 -0.1629 -0.1370
    1W        W56696  26.612  27.129   1.466  0.0255  0.2697 -0.0863
    1W        W56697   1.846   6.268   9.022  0.2292  0.1362  0.1008
    1W        W56698  26.201  23.217   2.968  0.1181  0.0150  0.2904
    1W        W56699  10.958  13.620   9.429  0.0420 -0.1025 -0.0344
    1W        W56700  13.782  17.852   1.826  0.0581 -0.4019  0.2289
    1W        W56701   4.128   4.935   2.033 -0.3164  0.1193 -0.0172
    1W        W56702   1.625  21.141   6.126  0.0645 -0.0560 -0.1362
    1W        W56703  21.724  21.265   2.417 -0.1661  0.3128 -0.2695
    1W        W56704  11.286  17.647   0.339 -0.0777 -0.2775 -0.0500
    1W        W56705  21.906  28.006   7.732  0.0123 -0.0803  0.0944
    1W        W56706   1.636  18.731   1.110  0.0166  0.0895 -0.2019
    1W        W56707   4.789  15.065   1.538 -0.0509  0.4106  0.0047
    1W        W56708  21.220   1.179   9.296  0.3305 -0.3232  0.0350
    1W        W56709   1.990  23.025   8.587 -0.0521  0.1919  0.0839
    1W        W56710  28.532  27.401   0.860 -0.2988  0.1319 -0.2307
    1W        W56711  16.079   5.634   1.437 -0.0614  0.4128 -0.0482
    1W        W56712  25.913   1.894   2.701 -0.0378  0.2475 -0.1059
    1W        W56713  23.802  26.302   6.755  0.4630  0.1180 -0.0114
    1W        W56714   0.197  16.433   8.789 -0.2356  0.1890  0.0702
    1W        W56715  29.776   1.272   2.478 -0.0908  0.1592 -0.1540
    1W        W56716  21.741  13.139   0.473  0.1681  0.3038  0.1026
    1W        W56717   7.543  10.903   6.690  0.0570  0.1828  0.0807
    1W        W56718  25.073   7.050   2.396  0.0648 -0.0174 -0.2716
    1W        W56719   6.723  27.273   7.966 -0.2862  0.0344  0.2185
    1W        W56720   3.969   8.730   7.415 -0.0970 -0.2322 -0.0692
    1W        W56721  18.213  13.178   7.254  0.2205  0.2236  0.5252
    1W        W56722   9.552  25.238   7.253  0.4207  0.1285  0.0964
    1W        W56723  26.146  28.871   1.018 -0.1875 -0.4165 -0.1222
    1W        W56724  15.744  27.870   6.525 -0.0593  0.0370  0.3486
    1W        W56725  26.537  17.820   0.453 -0.1006 -0.1763  0.1305
    1W        W56726  13.847  25.674   2.435  0.1426  0.4375 -0.3036
    1W        W56727  24.012  29.416   2.240 -0.0899  0.1599 -0.2105
    1W        W56728  19.329  27.393   2.184  0.1273 -0.3008 -0.2113
    1W        W56729  15.863  25.625   0.159  0.1225  0.1718  0.2077
    1W        W56730  14.416  23.248   6.366  0.0348  0.0587 -0.4371
    1W        W56731  14.435   7.447   1.329 -0.1974  0.0741  0.1243
    1W        W56732  28.927  24.435   8.082  0.2368 -0.1733  0.0255
    1W        W56733  10.709   7.514   7.339 -0.2580 -0.0108  0.2043
    1W        W56734   1.775  17.830   1.728 -0.0818  0.1780 -0.0695
    1W        W56735   5.697  19.737   7.650 -0.0229  0.0875  0.1528
    1W        W56736  21.283   3.436   1.613  0.4322 -0.1330  0.1710
    1W        W56737   1.914  12.051   8.325 -0.1477  0.0622 -0.2201
    1W        W56738   8.633  28.537   2.259  0.2450  0.2941  0.1781
    1W        W56739  20.042   1.013   2.299 -0.2949  0.4104  0.1719
    1W        W56740  17.359   6.776   9.417  0.0610 -0.4667  0.0391
    1W        W56741  15.777   8.864   8.673  0.3498 -0.0293  0.0168
    1W        W56742  11.186  18.995   7.198  0.1775 -0.3663 -0.2268
    1W        W56743   9.244   6.860   2.643  0.1024  0.0486  0.2639
    1W        W56744  23.676  28.422   1.211 -0.1003  0.0440 -0.0965
    1W        W56745  12.832  20.618   9.352  0.1197  0.0944  0.0273
    1W        W56746   2.624  16.075   1.912 -0.0842 -0.2380 -0.0103
    1W        W56747  21.472   6.161   8.803  0.0077  0.1128  0.2481
    1W        W56748   8.119  17.348   2.792 -0.2425  0.1621 -0.1729
    1W        W56749  16.476  18.583   5.855 -0.1331  0.3152  0.1827
    1W        W56750  11.330  18.697   6.180 -0.1040 -0.1343 -0.1811
    1W        W56751   3.811  26.665   6.449  0.0411 -0.1249  0.1877
    1W        W56752  14.351   8.107   2.033  0.0478 -0.1826  0.0452
    1W        W56753   1.999  16.769   8.280 -0.0638  0.2672  0.0663
    1W        W56754  18.682  10.322   2.433  0.0213 -0.0705  0.3881
    1W        W56755   2.717  24.313   9.495  0.0804 -0.3926  0.2729
    1W        W56756  24.003   9.529   0.723  0.0604 -0.1835  0.0168
    1W        W56757   6.617   3.715   8.868 -0.0896 -0.1401  0.0740
    1W        W56758  14.744   1.100   2.689  0.3679  0.1207 -0.0775
    1W        W56759  11.038   7.401   1.999  0.2168 -0.2580  0.3131
    1W        W56760  14.187   0.953   1.076 -0.0707  0.4588  0.2867
    1W        W56761  26.054   4.443   8.593 -0.1604  0.0826 -0.1446
    1W        W56762  10.589  15.775   8.887  0.0631  0.1102 -0.2757
    1W        W56763  28.696  11.973   8.588 -0.0953 -0.2925 -0.0530
    1W        W56764  16.484   0.923   9.248 -0.1762 -0.0692  0.1884
    1W        W56765   4.775   7.178   8.423 -0.1439  0.2568  0.2291
    1W        W56766   4.166   0.203   2.466 -0.2983  0.2450 -0.1558
    1W        W56767   0.298  28.843   1.369  0.3015 -0.0530 -0.0959
    1W        W56768  10.035  14.915   0.626  0.1199 -0.1001  0.0019
    1W        W56769  25.215  15.911   1.755  0.1778 -0.0917 -0.2618
    1W        W56770  16.707  10.664   2.201 -0.2132  0.1474 -0.0552
    1W        W56771  19.192  16.425   1.769 -0.2230 -0.1771 -0.1902
    1W        W56772   7.484  28.430   7.018  0.4123 -0.1153  0.3502
    1W        W56773   4.293   6.984   0.139 -0.0216  0.1220 -0.0252
    1W        W56774   7.639   2.789   1.534  0.0832  0.3023  0.1569
    1W        W56775  27.706   5.150   3.276 -0.0422 -0.2359 -0.5076
    1W        W56776  16.901  18.843   6.668 -0.0082  0.1975 -0.1345
    1W        W56777  18.298  27.914   8.203 -0.0594 -0.0119  0.0450
    1W        W56778  26.432  19.755   2.790 -0.0633 -0.2310 -0.0088
    1W        W56779  22.188  20.440   2.302 -0.2413  0.2418 -0.2840
    1W        W56780  21.046  18.183   7.758  0.2923  0.4874 -0.2247
    1W        W56781   0.821  13.365   7.525 -0.2505 -0.0336 -0.2362
    1W        W56782   1.848  23.227   1.966  0.0048  0.0041  0.0532
    1W        W56783  14.490  20.539   1.648  0.0208 -0.0666 -0.2259
    1W        W56784  10.863  28.770   7.810 -0.0796 -0.3417 -0.0284
    1W        W56785   7.157  10.586   1.392 -0.2440 -0.0804  0.1405
    1W        W56786  22.082   6.683   8.413 -0.0673 -0.0653  0.0020
    1W        W56787   6.186   1.438   6.559 -0.2296 -0.1749 -0.2391
    1W        W56788  10.774   6.188   7.341 -0.1897 -0.0680 -0.2354
    1W        W56789   8.571  18.786   2.116  0.0873 -0.0069  0.0882
    1W        W56790  11.844  11.147   1.040  0.0697  0.1499  0.2520
    1W        W56791  10.804  25.880   9.089  0.3145 -0.1413  0.0402
    1W        W56792   7.006  19.621   6.318  0.0889 -0.0155  0.0521
    1W        W56793  27.116  17.674   2.045 -0.1057  0.1348 -0.1725
    1W        W56794   5.341  15.929   9.041 -0.1088 -0.1450  0.2402
    1W        W56795  23.660  26.833   9.387 -0.1550 -0.4182 -0.0687
    1W        W56796  28.843   3.367   7.636  0.2783  0.4491  0.2608
    1W        W56797  28.024   0.904   6.641 -0.0822 -0.2018  0.2018
    1W        W56798   1.422  20.971   2.254  0.0438  0.3643 -0.2990
    1W        W56799  14.579  18.372   1.015 -0.1835  0.0699 -0.2174
    1W        W56800   7.948   3.593   0.959 -0.1675 -0.1220  0.0507
    1W        W56801  12.550  14.829   1.749 -0.2037 -0.1420  0.1551
    1W        W56802   1.743   4.930   8.627  0.1659  0.1492 -0.0862
    1W        W56803  27.585   9.867   7.061  0.0336 -0.1103 -0.2327
    1W        W56804  27.651   8.461   9.340  0.2646  0.1581 -0.0246
    1W        W56805   5.447   6.509   8.406  0.2014 -0.0200  0.0777
    1W        W56806   5.537  13.499   7.914 -0.4005 -0.1959  0.0056
    1W        W56807  25.668   0.661   0.639  0.0683 -0.0599  0.1987
    1W        W56808  22.113  26.373   7.178 -0.2268 -0.0310 -0.1078
    1W        W56809   1.691  25.269   6.246 -0.1955  0.0009 -0.0457
    1W        W56810  23.878   5.089   1.464 -0.2860 -0.0733  0.1282
    1W        W56811  13.517   7.309   1.550  0.1984  0.2539 -0.2308
    1W        W56812  18.797  17.105   0.442  0.0420 -0.1314  0.0202
    1W        W56813  28.128  17.112   7.498  0.0788  0.1229 -0.2315
    1W        W56814  27.027   4.020   7.895 -0.2913 -0.1350  0.1698
    1W        W56815  10.890   0.031   7.081 -0.0412  0.2210 -0.2268
    1W        W56816  12.457  17.021   1.874 -0.2569 -0.0314  0.2567
    1W        W56817  10.201  17.269   1.536 -0.0320 -0.2257  0.1704
    1W        W56818  15.945  13.199   0.676 -0.2274  0.0435  0.0751
    1W        W56819   6.087  22.726   6.545  0.0019 -0.3653 -0.0929
    1W        W56820  27.810   8.472   6.998  0.1622  0.0750 -0.3682
    1W        W56821  13.510  22.490   1.053 -0.0201 -0.1954  0.0868
    1W        W56822   0.690   0.535   7.510  0.0886 -0.1208 -0.1747
    1W        W56823  11.820  23.490   0.819  0.0152 -0.2173  0.1232
    1W        W56824  28.325  10.996   1.806 -0.2212  0.0609 -0.3191
    1W        W56825   3.149   2.598   8.807 -0.1684 -0.0026  0.2061
    1W        W56826  22.134  28.980   6.854 -0.1397  0.1529  0.2673
    1W        W56827   8.390   1.195   0.824 -0.0767 -0.0386  0.2858
    1W        W56828  16.340  19.655   6.693  0.0238 -0.2834 -0.3936
    1W        W56829  26.460  27.004   6.575  0.0896 -0.0358  0.0648
    1W        W56830  12.287  24.238   7.054 -0.2185  0.0354 -0.0391
    1W        W56831  10.790  14.706   7.527  0.0615 -0.1251 -0.1359
    1W        W56832  12.404  29.353   8.755  0.2806  0.0337  0.1261
    1W        W56833  28.130  29.645   1.915  0.1273  0.3364  0.0994
    1W        W56834  21.208   8.955   2.100  0.0482 -0.1893 -0.1751
    1W        W56835   8.668   3.309   7.985 -0.0872  0.0482 -0.1443
    1W        W56836   4.163  13.715   9.340 -0.0303  0.0481  0.2735
    1W        W56837  24.573  21.952   1.303 -0.0366 -0.2640 -0.3342
    1W        W56838  22.719  16.491   1.355  0.0197  0.2325  0.0014
    1W        W56839  17.458  15.499   7.156  0.1068 -0.1274  0.1377
    1W        W56840   6.880  10.091   1.453 -0.0696 -0.1263 -0.1843
    1W        W56841   8.610  28.115   7.880  0.1060  0.1294  0.1566
    1W        W56842   9.106  22.801   6.603  0.4718 -0.0155 -0.1224
    1W        W56843  23.915   7.327   1.975  0.1225 -0.0111  0.2464
    1W        W56844   2.719  17.720   0.298 -0.0573  0.0806 -0.2717
    1W        W56845   7.217  29.768   0.950 -0.0097 -0.1241 -0.0229
    1W        W56846  19.001  17.788   1.082 -0.2888  0.2255 -0.3542
    1W        W56847  27.213   7.370   2.038  0.1185 -0.0720 -0.0334
    1W        W56848   7.905  25.614   0.701 -0.0139 -0.1828 -0.0538
    1W        W56849   4.811  19.615   6.632 -0.4202  0.0337  0.1271
    1W        W56850  29.379   9.914   3.390  0.0130 -0.1327  0.0487
    1W        W56851  12.089  21.292   1.355 -0.3001  0.0466  0.4184
    1W        W56852   4.888   8.636   0.804  0.2114  0.1820  0.3480
    1W        W56853  17.965  19.258   8.047 -0.2483 -0.0377  0.1074
    1W        W56854   0.213   3.191   2.548  0.2161  0.1199  0.4608
    1W        W56855  20.418  11.254   8.735  0.0499 -0.1724 -0.2909
    1W        W56856  11.528  19.178   0.337 -0.0053  0.1961 -0.2275
    1W        W56857  19.496  19.911   1.459  0.1249  0.2382  0.0627
    1W        W56858   9.452  11.385   8.361 -0.1492  0.1056 -0.0657
    1W        W56859   4.495  24.650   1.282  0.0589  0.1939  0.0373
    1W        W56860   6.945  24.851   6.753 -0.2206  0.1892 -0.0614
    1W        W56861   9.275  27.660   9.035 -0.0288  0.0625  0.1289
    1W        W56862   0.074  21.482   7.101 -0.2366  0.0746  0.0170
    1W        W56863  21.875   0.995   7.765 -0.2987  0.0008 -0.1715
    1W        W56864  26.768  28.843   2.313  0.0340 -0.0341 -0.0705
    1W        W56865  27.392   0.749   8.520 -0.1422 -0.0274 -0.0394
    1W        W56866  26.144   2.289   9.407 -0.1322 -0.3456  0.3943
    1W        W56867   6.511  18.120   6.987  0.1772  0.0438  0.0178
    1W        W56868   1.059   0.151   1.197 -0.2066 -0.2314  0.3254
    1W        W56869  16.688   9.508   1.671  0.0758  0.2088 -0.1123
    1W        W56870  14.615  21.025   6.582 -0.2761 -0.2844  0.2812
    1W        W56871  11.587   2.468   0.522  0.1456 -0.0565  0.0817
    1W        W56872  13.034  15.121   8.342  0.4172  0.0208 -0.2476
    1W        W56873  10.320  12.852   2.045  0.3303  0.1180  0.0449
    1W        W56874  25.774  17.287   0.875 -0.1029  0.1788 -0.1670
    1W        W56875  22.692  18.790   0.415 -0.0016 -0.0562 -0.2665
    1W        W56876  24.754  19.371   1.442  0.2173 -0.1059 -0.1295
    1W        W56877  22.932  18.678   7.590 -0.0516  0.1723 -0.0883
    1W        W56878  21.199  26.468   1.853  0.1277  0.1946  0.1546
    1W        W56879  17.611  23.192   6.883  0.1335 -0.2402  0.0970
    1W        W56880  22.281  21.161   8.506  0.0995  0.1835  0.0761
    1W        W56881  13.324   9.047   3.140  0.0418 -0.1798 -0.2573
    1W        W56882  15.258  27.098   9.088  0.0405 -0.1547 -0.0646
    1W        W56883   4.315  12.088   0.826 -0.0088 -0.0316  0.0530
    1W        W56884  22.598   0.701   1.112  0.1340  0.1080  0.1217
    1W        W56885  21.722   8.081   0.080  0.0148  0.1182  0.0697
    1W        W56886  16.296  12.019   1.964 -0.0085 -0.1716  0.0458
    1W        W56887  16.751  13.405   6.921 -0.0724  0.1963  0.2391
    1W        W56888   6.679  12.397   1.037 -0.1662 -0.3040 -0.0002
    1W        W56889   8.614  19.959   1.558  0.0066  0.0975 -0.3411
    1W        W56890  29.085  28.368   2.892 -0.1725  0.0631  0.2506
    1W        W56891   8.673  21.567   6.828 -0.0980  0.4207  0.1566
    1W        W56892  17.602  22.625   6.203  0.5229  0.3486 -0.1245
    1W        W56893   7.848   1.543   8.143 -0.0063 -0.1361  0.2528
    1W        W56894  11.729   9.955   9.048  0.2213  0.4643 -0.1854
    1W        W56895  26.379   7.987   1.126  0.0319 -0.3098 -0.0802
    1W        W56896   6.900  23.623   7.887  0.0839  0.3464 -0.1355
    1W        W56897  28.503   5.033   8.012  0.0297  0.0024  0.0468
    1W        W56898   5.818   8.131   2.041 -0.0036  0.2416  0.1025
    1W        W56899  23.162   3.443   7.483  0.0017  0.1008 -0.1813
    1W        W56900  13.100   9.857   9.023 -0.0062 -0.0171 -0.0940
    1W        W56901   0.335  25.257   0.258  0.1775  0.0711  0.0789
    1W        W56902   3.126   3.093   8.635 -0.0066 -0.0701  0.1473
    1W        W56903  19.001   1.959   8.571  0.4606  0.1190  0.1894
    1W        W56904  24.918   9.263   1.183 -0.1473 -0.1765  0.0080
    1W        W56905  22.290  18.970   8.703 -0.0031  0.0032  0.0597
    1W        W56906  26.867  17.810   7.139  0.1228 -0.0745 -0.1906
    1W        W56907   3.917   6.347   0.924 -0.0238  0.1150 -0.0582
    1W        W56908  10.087   2.164   2.592 -0.0349  0.1860 -0.1936
    1W        W56909   0.724   3.842   7.920 -0.0601 -0.2233 -0.0991
    1W        W56910  24.328  12.052   1.236  0.0099 -0.0993 -0.0667
    1W        W56911  23.991  26.874   0.229  0.1258  0.0383 -0.0168
    1W        W56912  11.440   3.117   2.387  0.1563  0.2199  0.3412
    1W        W56913  21.745   0.939   8.592  0.2290  0.4656  0.1622
    1W        W56914  21.759   1.387   1.401 -0.1154  0.1602 -0.3771
    1W        W56915  24.726   5.763   8.992  0.2008  0.0605  0.1034
    1W        W56916   9.517  22.475   6.880 -0.0661  0.2435 -0.0228
    1W        W56917   5.909  25.178   5.407 -0.0385 -0.1234  0.0126
    1W        W56918   6.554  28.544   1.017 -0.0482  0.2017 -0.1473
    1W        W56919  20.131  28.006   3.486  0.0974  0.3208  0.2248
    1W        W56920  17.142   8.100   8.670 -0.1909  0.0396 -0.0630
    1W        W56921   6.187  14.219   8.115 -0.1425 -0.0799  0.0602
    1W        W56922   7.763  20.253   8.038 -0.0546  0.1451 -0.3034
    1W        W56923  12.837   1.483   2.197 -0.1371  0.0213  0.0867
    1W        W56924   5.224  26.020   6.978 -0.0496  0.1958 -0.1187
    1W        W56925   5.316   0.278   6.352 -0.0131  0.1001  0.1200
    1W        W56926  11.904  10.563   7.487  0.1803  0.3228  0.0351
    1W        W56927  26.964  26.279   0.802 -0.0387 -0.0967 -0.1493
    1W        W56928  12.367   2.670   1.551  0.0708 -0.1211 -0.0098
    1W        W56929  25.903   2.755   8.586 -0.0125  0.2911 -0.0185
    1W        W56930  18.904  13.021   1.726  0.0595  0.0402  0.1638
    1W        W56931  29.533  25.279   0.534  0.0317 -0.2803  0.2312
    1W        W56932   5.321  11.869   0.197  0.0230  0.1296  0.1857
    1W        W56933   3.985  18.269   2.019  0.3421  0.0778 -0.2182
    1W        W56934  14.286   7.295   3.117  0.3496 -0.3485 -0.2332
    1W        W56935  26.281  20.713   6.668  0.1805 -0.0997  0.0186
    1W        W56936  12.856   1.033   1.304  0.2441  0.2627 -0.0092
    1W        W56937   0.317  10.128   2.656  0.1548  0.3051  0.1135
    1W        W56938  21.766  20.006   2.185  0.1901  0.0898 -0.1039
    1W        W56939  15.914  19.732   5.286 -0.1027  0.1646 -0.0856
    1W        W56940   2.835   5.333   6.996  0.1545 -0.2900  0.0144
    1W        W56941   7.956  14.393   8.052 -0.1597 -0.0539 -0.1984
    1W        W56942  14.272  13.294   1.797 -0.1558 -0.1804  0.0548
    1W        W56943   5.904  17.001   0.151  0.3674 -0.1497  0.2061
    1W        W56944  18.490  27.878   0.476 -0.0796 -0.2001  0.1318
    1W        W56945  20.597  25.433   9.476 -0.0026 -0.0447 -0.1504
    1W        W56946  10.061   7.193   7.831  0.1086 -0.0773  0.1032
    1W        W56947   6.043  21.129   6.635  0.0908  0.0251 -0.0721
    1W        W56948  22.848  22.564   1.456 -0.2640 -0.1112  0.0426
    1W        W56949   0.678  14.898   7.129 -0.3600  0.5219 -0.0078
    1W        W56950   1.879  11.678   8.963 -0.2449 -0.1875 -0.1744
    1W        W56951  17.954  19.886   8.015 -0.0805  0.1811 -0.0135
    1W        W56952   0.126  27.506   2.016 -0.0742 -0.3200  0.0490
    1W        W56953   4.557  19.481   1.427  0.1188 -0.0877 -0.2397
    1W        W56954  22.410  15.061   2.409 -0.3407  0.0881 -0.0552
    1W        W56955  23.762   4.521   1.311  0.2041 -0.1140  0.1233
    1W        W56956  25.948   6.505   7.732  0.0815  0.1144  0.2770
    1W        W56957  13.978   2.215   2.134 -0.1156  0.0897 -0.3399
    1W        W56958  11.167   6.553   7.124  0.1930  0.0112  0.0954
    1W        W56959  21.024  17.778   8.578 -0.3351 -0.1483 -0.3434
    1W        W56960  14.802  15.854   1.699 -0.2356  0.3452  0.1116
    1W        W56961  12.323  22.439   1.697 -0.0837 -0.2635  0.0026
    1W        W56962  27.519  17.685   7.711  0.0351 -0.0176 -0.1041
    1W        W56963  15.548  26.114   8.070  0.2085 -0.3037  0.1660
    1W        W56964   0.357  28.174   1.491 -0.0806 -0.1749 -0.0508
    1W        W56965   6.186  10.744   1.407 -0.2682 -0.1445  0.1027
    1W        W56966   7.452  27.802   1.838  0.1424  0.1029  0.0835
    1W        W56967  22.165  17.378   2.171 -0.0073 -0.0027 -0.2531
    1W        W56968   5.719   8.817   0.554 -0.0092  0.0035  0.0859
    1W        W56969  14.161   7.213   4.137  0.0533 -0.0057 -0.3137
    1W        W56970  28.148  25.474   2.156 -0.0838 -0.2407  0.0396
    1W        W56971   8.956  26.032   0.030  0.0417 -0.2693  0.0534
    1W        W56972  29.135   8.220   9.395  0.0985 -0.0080 -0.2496
    1W        W56973  20.643   1.483   8.689  0.1710 -0.0066 -0.2717
    1W        W56974  16.773   4.777   9.294  0.0908 -0.2951 -0.0876
    1W        W56975  14.910   8.047   9.006  0.0636  0.0638  0.0631
    1W        W56976   7.378  20.213   7.768  0.1173 -0.2342 -0.2979
    1W        W56977   0.925  23.907   8.192 -0.0632  0.1659  0.1253
    1W        W56978  27.970  29.288   8.872  0.0709 -0.1176 -0.0484
    1W        W56979  19.453  23.263   5.938 -0.1163 -0.1197  0.0614
    1W        W56980   8.919  29.295   8.468 -0.1699  0.1129 -0.0800
    1W        W56981  22.336   9.449   8.083 -0.0627  0.0595  0.3112
    1W        W56982  19.674   8.183   1.356  0.1939 -0.0089 -0.2252
    1W        W56983   5.693   6.574   1.760  0.0345  0.0544 -0.1354
    1W        W56984  26.002  15.242   7.290  0.0972  0.0218 -0.0127
    1W        W56985  12.549   0.698   1.006 -0.0760  0.3364 -0.1542
    1W        W56986  26.891  17.505   2.542 -0.2324  0.2672 -0.1880
    1W        W56987  22.776  19.223   9.065 -0.0266 -0.0698  0.0883
    1W        W56988   9.153  27.894   9.454 -0.1960 -0.0704  0.0165
    1W        W56989   1.776  20.380   0.481  0.2336  0.3041 -0.0986
    1W        W56990  29.792  22.935   8.538 -0.1719 -0.0197 -0.1653
    1W        W56991   8.467   7.102   8.772  0.0485 -0.0959 -0.3052
    1W        W56992  11.322  16.592   2.032  0.1776 -0.1110 -0.0706
    1W        W56993  21.981   7.565   8.611  0.5393  0.3752  0.0477
    1W        W56994   1.686   1.720   1.105  0.2656 -0.0347 -0.0348
    1W        W56995  11.260   7.940   1.647 -0.2041 -0.0062  0.1114
    1W        W56996   8.959  25.890   9.076  0.1927 -0.1148  0.3372
    1W        W56997   4.932  26.840   1.243 -0.0217 -0.3415 -0.3325
    1W        W56998   6.429  17.701   1.300 -0.1666  0.0530 -0.1500
    1W        W56999  20.001   8.193   0.925  0.1791  0.1149  0.0671
    1W        W57000   1.297  23.403   8.760  0.0277 -0.0350 -0.0708
    1W        W57001  21.137  24.747   9.506 -0.1230  0.1532  0.0213
    1W        W57002  19.798  14.520   8.974 -0.1514 -0.2295 -0.1811
    1W        W57003  17.568   2.737   4.274 -0.0585  0.2474 -0.2479
    1W        W57004   1.561  17.143   1.839  0.1063 -0.1181  0.0247
    1W        W57005  19.761  18.012   1.417 -0.0997 -0.3960  0.0511
    1W        W57006  14.929   4.626   0.007 -0.3466 -0.2155  0.0279
    1W        W57007   6.786   6.075   6.594  0.0058  0.1896 -0.0408
    1W        W57008  20.523  15.888   0.232 -0.2744 -0.1278  0.2786
    1W        W57009  23.858   0.275   0.295  0.2318 -0.3585  0.0327
    1W        W57010   2.072   2.975   1.637 -0.2127  0.1750 -0.2256
    1W        W57011   1.995  20.542   2.541 -0.0964 -0.0820  0.0988
    1W        W57012  25.990  25.128   8.283  0.0477  0.1219  0.1999
    1W        W57013  28.418   1.738   6.758  0.2198 -0.1430  0.1196
    1W        W57014  16.425  23.200   9.478 -0.0848 -0.3089  0.0718
    1W        W57015  10.492  24.218   0.539 -0.1554 -0.0403 -0.2954
    1W        W57016  19.343   1.252   8.239  0.1350  0.0614  0.0506
    1W        W57017  23.198  23.511   8.611  0.2657  0.0138 -0.1523
    1W        W57018  26.124  29.367   1.888 -0.2084 -0.0710 -0.3494
    1W        W57019   7.898  11.445   3.046  0.0220 -0.0404 -0.1338
    1W        W57020   8.419  10.484   2.544 -0.3611 -0.0387  0.1188
    1W        W57021   4.807   0.264   6.473 -0.2317  0.1523 -0.1344
    1W        W57022  14.060   2.381   9.413 -0.0897  0.2234 -0.0188
    1W        W57023  10.790   1.936   9.147 -0.2499 -0.0254  0.0060
    1W        W57024   1.856   3.422   0.648  0.1830  0.1263 -0.1590
    1W        W57025   7.504  11.139   8.009 -0.1183 -0.1077 -0.2160
    1W        W57026  15.720   9.271   8.372  0.0103 -0.4105  0.0348
    1W        W57027   0.062   0.602   8.424  0.0821 -0.1860 -0.0084
    1W        W57028  17.853  26.718   8.846  0.3021  0.0179  0.1941
    1W        W57029   8.894  17.107   7.468  0.1750  0.1972  0.0348
    1W        W57030   6.682  12.118   0.487  0.2272  0.1237  0.2041
    1W        W57031  16.335  23.198   5.939  0.1374 -0.2689  0.0385
    1W        W57032  27.867  16.953   2.237  0.4919 -0.0296 -0.0550
    1W        W57033  20.532   5.308   8.273  0.2244 -0.1900 -0.0524
    1W        W57034  10.808  12.235   8.059  0.1718 -0.2842  0.2395
    1W        W57035  25.831   6.208   7.104 -0.2272  0.0240 -0.0318
    1W        W57036   3.845  23.528   8.986 -0.0579 -0.2613  0.2028
    1W        W57037  19.698  22.871   0.422 -0.0557  0.2365  0.0841
    1W        W57038  23.505  27.578   7.026 -0.1569  0.1458 -0.0981
    1W        W57039   9.460   3.927   7.230  0.0556 -0.1612 -0.1100
    1W        W57040  22.653  28.214   8.313  0.0320  0.0768  0.0414
    1W        W57041   6.336  27.030   6.569  0.2920 -0.0040 -0.1471
    1W        W57042  17.083  16.654   1.987  0.0489 -0.5520 -0.1401
    1W        W57043  24.395   4.143   3.870  0.0569  0.0596  0.1189
    1W        W57044   5.305   9.716   2.228 -0.0297  0.2966 -0.0841
    1W        W57045  24.109   0.699   2.330  0.0239  0.4321 -0.0557
    1W        W57046   1.728  26.473   8.451  0.1006  0.0202  0.1184
    1W        W57047  24.390  29.452   7.080 -0.3513  0.0615 -0.0356
    1W        W57048  19.233  14.192   1.052 -0.1836 -0.0131  0.2459
    1W        W57049   4.763  12.171   6.664 -0.2395 -0.0618  0.3699
    1W        W57050   1.476  10.639   0.444 -0.1200 -0.1719  0.0247
    1W        W57051  23.504   5.700   1.129 -0.0863  0.0076  0.0511
    1W        W57052   3.644  22.111   9.025  0.1649  0.2997  0.2874
    1W        W57053  27.528  21.937   6.555 -0.1609  0.2251  0.1650
    1W        W57054   0.167  25.745   0.395  0.5755 -0.1240 -0.1839
    1W        W57055  16.635  19.249   6.544  0.1974  0.2651  0.1581
    1W        W57056  14.573   7.774   2.343  0.0979  0.3861  0.1209
    1W        W57057  22.675   1.913   9.224 -0.1929  0.2252 -0.0065
    1W        W57058   6.657   4.325   1.272  0.1414 -0.2020  0.0083
    1W        W57059  26.752  29.773   0.211  0.2480  0.0384  0.0629
    1W        W57060  22.953  22.368   6.669  0.1125 -0.0380  0.0722
    1W        W57061   9.773   8.545   8.701 -0.1289 -0.0138  0.3064
    1W        W57062  15.788  27.690   9.492  0.4496  0.0954  0.0416
    1W        W57063  11.193  28.054   2.098  0.0856  0.1995 -0.0917
    1W        W57064  14.831  29.846   3.301 -0.0666  0.1998 -0.2583
    1W        W57065  22.763   3.974   1.429 -0.0266 -0.2322  0.2158
    1W        W57066   7.103   3.819   7.989 -0.2864  0.2110 -0.3409
    1W        W57067  27.560  12.702   6.630 -0.0673  0.1168  0.1796
    1W        W57068   1.301  13.741   2.846  0.3533  0.0091  0.1398
    1W        W57069  18.631  12.291   0.698 -0.1701  0.5040 -0.0233
    1W        W57070   0.390  23.327   0.937  0.0033  0.1238 -0.2420
    1W        W57071  25.517  26.485   1.479  0.0950 -0.3916  0.1426
    1W        W57072  11.120  21.873   6.370  0.4404  0.4136 -0.2967
    1W        W57073   8.394  24.280   0.781 -0.2060  0.1426  0.2666
    1W        W57074  18.728   0.063   8.183 -0.1333 -0.0921 -0.3570
    1W        W57075  16.469  26.150   0.786 -0.0267  0.0124 -0.1778
    1W        W57076   8.006  23.065   5.463 -0.2322  0.2522  0.1921
    1W        W57077  10.401  29.195   7.934  0.1664 -0.0271  0.2718
    1W        W57078  29.251  26.217   6.333 -0.2835  0.0297 -0.0371
    1W        W57079  26.031  18.748   0.356 -0.0600  0.1378 -0.1014
    1W        W57080  13.733  25.973   6.983  0.2139  0.0015  0.2412
    1W        W57081  18.573   4.415   8.792 -0.0628 -0.2034 -0.2692
    1W        W57082  27.270  18.154   2.868 -0.1080 -0.2870 -0.0341
    1W        W57083   3.172   7.941   2.422 -0.1641 -0.0392 -0.1720
    1W        W57084  17.997  11.012   9.416 -0.1712 -0.1626 -0.0676
    1W        W57085  28.514  18.655   6.698  0.2563 -0.1914  0.0095
    1W        W57086  28.101  26.177   8.099  0.1354  0.1300 -0.1868
    1W        W57087  25.869  16.420   8.197 -0.1918 -0.0397  0.2281
    1W        W57088   9.461  21.422   2.193  0.1498 -0.0922  0.0306
    1W        W57089   1.935   3.945   2.053 -0.1188 -0.2526  0.1128
    1W        W57090  10.824   8.727   0.455  0.0613 -0.0827  0.0704
    1W        W57091   5.707   0.949   7.918 -0.1264 -0.1313 -0.0008
    1W        W57092   0.940  14.851   2.561  0.0887  0.1544  0.2331
    1W        W57093   0.782  20.182   2.357  0.2405  0.0925  0.0703
    1W        W57094  19.123  15.211   2.399 -0.1080 -0.1477  0.4010
    1W        W57095  26.184  25.624   7.759 -0.3024 -0.0812 -0.1179
    1W        W57096   4.833  14.963   7.835  0.0581  0.1174 -0.0114
    1W        W57097   6.001   0.323   2.065  0.0113  0.0327 -0.2644
    1W        W57098   5.930  16.807   7.265 -0.3022  0.1075  0.4092
    1W        W57099   9.313  21.049   0.573 -0.1298  0.0311 -0.1238
    1W        W57100   4.314   4.667   7.666  0.0679  0.1746 -0.2122
    1W        W57101  29.321  18.249   2.999 -0.3130  0.2328 -0.1867
    1W        W57102  10.110   9.299   7.418 -0.0787  0.2537 -0.3467
    1W        W57103  23.560  26.258   2.218  0.2690 -0.0257  0.2516
    1W        W57104  18.441   2.586   9.146 -0.1255 -0.1785  0.3796
    1W        W57105  26.166   0.997   1.321  0.2856 -0.0220 -0.0939
    1W        W57106   2.317  14.731   8.037  0.1398 -0.1893  0.1187
    1W        W57107  24.591   5.798   1.648 -0.0808  0.0079 -0.1109
    1W        W57108  24.213  23.953   7.247 -0.1123  0.2087  0.1185
    1W        W57109  23.778  25.173   7.022  0.0073 -0.0002  0.2270
    1W        W57110   6.536  24.670   9.504 -0.1570  0.0227 -0.1431
    1W        W57111  21.482   1.877   3.411 -0.2518 -0.2535 -0.0936
    1W        W57112  28.001   1.379   6.852  0.0388 -0.1562 -0.1369
    1W        W57113   1.411   7.794   8.828 -0.1252  0.0643 -0.0664
    1W        W57114  27.473  16.690   8.453 -0.0679 -0.0124 -0.1410
    1W        W57115   1.862  17.081   9.171  0.0535 -0.0154  0.0527
    1W        W57116  24.393   6.380   1.490 -0.1512  0.1857  0.2660
    1W        W57117  24.393  11.977   9.157 -0.1762 -0.1030  0.0619
    1W        W57118   5.731  10.950   8.907 -0.1348  0.1590 -0.2242
    1W        W57119   7.570  21.510   6.335 -0.0123  0.1434 -0.0111
    1W        W57120  18.017   4.329   0.005 -0.0467 -0.0770  0.5584
    1W        W57121  12.024  18.044   8.184  0.1574 -0.3345 -0.0280
    1W        W57122  20.973  18.725   8.548  0.2236 -0.0981  0.0091
    1W        W57123   6.940  20.597   7.062 -0.3268  0.0740 -0.2748
    1W        W57124   9.591  10.968   3.572 -0.4052 -0.2528 -0.0221
    1W        W57125  24.305   2.116   2.723 -0.0424  0.1249  0.1242
    1W        W57126   4.651  21.633   0.611 -0.0619  0.1204 -0.0619
    1W        W57127  18.465  21.442   8.241  0.1102  0.0219 -0.1755
    1W        W57128  23.637  14.273   1.928  0.4359  0.1811  0.2708
    1W        W57129  20.406  13.769   0.623  0.0305  0.1268  0.1059
    1W        W57130  16.306  29.546   2.698  0.0360 -0.1840  0.0086
    1W        W57131  15.995   1.807   4.035  0.1726  0.2194 -0.1598
    1W        W57132  14.783   1.168   1.617  0.1787  0.1537 -0.1638
    1W        W57133   6.516  27.065   8.403  0.1627 -0.0676  0.0460
    1W        W57134  12.908  10.805   7.244 -0.3942  0.0259  0.2427
    1W        W57135   7.816   3.655   2.719 -0.2598 -0.0605 -0.0267
    1W        W57136  15.441  18.604   0.572  0.0344  0.0699 -0.1754
    1W        W57137  12.253   4.074   3.961 -0.1181  0.1276  0.0278
    1W        W57138   3.278  21.824   0.367 -0.3211 -0.1118  0.1091
    1W        W57139   1.014  18.794   8.190  0.0325  0.2756 -0.1619
    1W        W57140   5.405  12.982   6.716  0.0424 -0.0011  0.1604
    1W        W57141  28.750  20.843   2.410 -0.1327  0.0866 -0.0003
    1W        W57142  24.795  24.345   0.038 -0.2008  0.0893 -0.2617
    1W        W57143   9.384  10.946   1.655  0.1596 -0.1610  0.1332
    1W        W57144  23.371  24.804   3.152 -0.0830  0.0307  0.0126
    1W        W57145  24.669  11.725   0.447  0.1111 -0.2104 -0.1834
    1W        W57146  14.692   9.286   8.212 -0.1564 -0.2236  0.2220
    1W        W57147   8.693  13.159   7.584 -0.0216 -0.0028  0.0870
    1W        W57148  24.885  26.475   7.983 -0.1796 -0.0691 -0.1163
    1W        W57149   3.504   0.641   0.841  0.0598  0.2015  0.2495
    1W        W57150  26.792  21.930   7.760  0.1316 -0.3601  0.1727
    1W        W57151  18.198   9.299   2.355  0.2197  0.0665 -0.0954
    1W        W57152  16.765  21.916   7.780  0.0889  0.1451  0.1475
    1W        W57153   0.088  13.720   7.522  0.1475  0.0832  0.2378
    1W        W57154  19.405  11.505   8.604 -0.1311 -0.0594 -0.0296
    1W        W57155  28.156  20.705   6.018  0.0792 -0.2391 -0.0886
    1W        W57156  20.375  14.118   1.566 -0.1708 -0.1830 -0.0210
    1W        W57157  14.534  23.523   9.241 -0.0972  0.2764 -0.0271
    1W        W57158  27.929  18.274   8.334  0.0967 -0.1080  0.0265
    1W        W57159  16.141  26.828   1.539  0.1453 -0.1597  0.0745
    1W        W57160   6.024  27.032   8.441 -0.0491  0.0198 -0.3484
    1W        W57161  23.008  24.064   7.562  0.1624  0.3232  0.0547
    1W        W57162   4.802   4.340   8.769  0.1860 -0.2426 -0.0113
    1W        W57163  16.942  23.481   0.697 -0.2088 -0.1650 -0.0183
    1W        W57164  17.196   6.047   3.881 -0.1118  0.2081  0.0172
    1W        W57165   7.663  23.498   1.029  0.0711 -0.2651  0.1634
    1W        W57166  14.107   9.233   1.476  0.0499  0.1423 -0.7129
    1W        W57167   6.188   3.877   6.815  0.2466  0.2151 -0.2761
    1W        W57168  25.662   8.002   9.433 -0.0782 -0.1930  0.0915
    1W        W57169   1.057  27.276   8.660 -0.1525 -0.2983  0.1632
    1W        W57170   8.896  22.573   1.857  0.2358  0.0161  0.1380
    1W        W57171  26.481  11.570   9.325 -0.0477  0.2897  0.1794
    1W        W57172   7.159   5.489   7.929 -0.1523  0.3250  0.2828
    1W        W57173  10.565  19.927   8.588 -0.1303  0.0151 -0.2924
    1W        W57174  19.455   4.022   3.987  0.1150  0.0986  0.1654
    1W        W57175  27.812  13.575   7.224  0.0551  0.2338  0.0470
    1W        W57176   3.391  20.090   2.907 -0.0132 -0.0599 -0.1373
    1W        W57177   7.627   2.737   9.483  0.1297 -0.0742 -0.1521
    1W        W57178  13.508  27.747   8.643 -0.1456  0.1737 -0.0976
    1W        W57179  12.007   8.908   8.997 -0.0839 -0.0002  0.1616
    1W        W57180  16.889  14.899   0.464 -0.2178 -0.0772  0.0272
    1W        W57181  24.616  10.692   8.041  0.0298  0.2166 -0.2766
    1W        W57182   1.246  26.572   7.136  0.1252  0.1545 -0.1771
    1W        W57183   6.308  15.331   5.917  0.1463 -0.2134  0.0505
    1W        W57184  29.386  19.278   2.206 -0.0982  0.0413 -0.2495
    1W        W57185  22.830  26.519   9.207  0.0814 -0.1185  0.1652
    1W        W57186   3.171   5.847   8.695  0.6460  0.0249 -0.1338
    1W        W57187  19.060  16.523   9.284  0.2784  0.2143 -0.1157
    1W        W57188  25.470  10.605   1.849  0.1094  0.2082 -0.0223
    1W        W57189   6.605   5.134   2.773 -0.2846 -0.0228 -0.2567
    1W        W57190  28.638   1.364   0.537 -0.1994 -0.0833 -0.0430
    1W        W57191  15.393   5.240   3.080  0.0677  0.0877 -0.0030
    1W        W57192  20.189   3.426   4.117  0.0463  0.1218  0.1274
    1W        W57193   1.250  14.644   8.638  0.1243  0.2584  0.1087
    1W        W57194  22.937  20.162   6.468  0.1342 -0.0027 -0.0778
    1W        W57195  29.120  21.212   8.248 -0.2409 -0.0332  0.1712
    1W        W57196  25.905  22.955   0.262 -0.0942 -0.0455  0.1029
    1W        W57197   4.717  17.380   7.415 -0.3927 -0.0426  0.3134
    1W        W57198  24.492  17.063   1.544  0.1194  0.2065  0.1875
    1W        W57199  12.339   3.096   9.239  0.2482  0.1744  0.0814
    1W        W57200  28.725  17.753   9.038 -0.0465  0.2637 -0.4923
    1W        W57201  28.026  22.468   8.088  0.0811 -0.0311 -0.0836
    1W        W57202  17.826  27.731   8.449 -0.1980 -0.5027 -0.1410
    1W        W57203  13.976  16.803   5.622 -0.2427 -0.0915  0.0244
    1W        W57204  14.392   4.225   3.668  0.0371  0.0403  0.4464
    1W        W57205  13.435  19.080   1.738 -0.0760 -0.2536 -0.0200
    1W        W57206   1.652   3.512   2.257 -0.0442 -0.1545 -0.4450
    1W        W57207  24.850  27.148   2.247 -0.1374  0.0957 -0.0259
    1W        W57208  10.900  23.893   5.753 -0.0226  0.3420  0.0131
    1W        W57209  19.860   8.098   0.436 -0.0984  0.1011 -0.2280
    1W        W57210  27.579  21.621   3.003  0.0801 -0.0827  0.2164
    1W        W57211  18.079  27.979   9.408 -0.1572 -0.1442 -0.2513
    1W        W57212  27.334   2.116   8.970 -0.0695 -0.1431  0.3806
    1W        W57213  10.293   3.037   7.753  0.1955  0.2140  0.1772
    1W        W57214  27.595  28.604   2.500  0.1771 -0.0058 -0.2175
    1W        W57215  21.620  19.446   7.652  0.1266  0.1138 -0.1334
    1W        W57216  19.298   3.588   8.583 -0.0569 -0.2869 -0.1795
    1W        W57217   7.196  21.779   9.489 -0.3156 -0.0765 -0.2813
    1W        W57218  20.344  12.422   8.964 -0.3732 -0.4396  0.4182
    1W        W57219  12.985  16.724   7.605 -0.0868 -0.0257  0.1668
    1W        W57220  19.960  22.190   2.403  0.2360  0.1236 -0.3460
    1W        W57221  15.414  22.945   8.292 -0.0958  0.0612  0.0388
    1W        W57222  13.571  27.394   6.922  0.0586 -0.1858 -0.2474
    1W        W57223   7.750   6.739   3.304 -0.2305  0.0534  0.0229
    1W        W57224   9.272   8.001   1.980  0.1193 -0.0003 -0.3596
    1W        W57225  27.298  25.860   6.062 -0.1369  0.1038  0.3804
    1W        W57226   3.435  21.088   6.871  0.1900  0.1939 -0.0792
    1W        W57227   2.166  22.462   7.410  0.2492 -0.0380 -0.0871
    1W        W57228   9.209  20.119   1.606  0.0653 -0.1352 -0.0443
    1W        W57229  21.545  24.302   8.513 -0.1966  0.2437 -0.3197
    1W        W57230  29.807   9.426   9.313  0.0129 -0.2367  0.1146
    1W        W57231   0.655  11.662   9.257  0.2311 -0.0039  0.1125
    1W        W57232   8.233  24.791   0.517 -0.0364  0.0213 -0.1030
    1W        W57233   4.382   6.434   6.589 -0.2028 -0.5063  0.4095
    1W        W57234  28.123   6.052   6.934 -0.0808 -0.0295  0.0195
    1W        W57235  11.929  20.272   8.756 -0.2065  0.1637 -0.0935
    1W        W57236  24.817   9.120   0.650 -0.0614  0.3002  0.5411
    1W        W57237  20.036  12.721   1.599  0.3319  0.1566 -0.0022
    1W        W57238  16.608   3.846   0.658 -0.1920 -0.2155 -0.1784
    1W        W57239   7.312   0.176   2.203  0.0872 -0.1968  0.0436
    1W        W57240  11.039   2.056   3.273 -0.1337 -0.0739  0.1021
    1W        W57241   5.904   6.319   6.828 -0.0168  0.1916  0.0082
    1W        W57242   4.547  24.594   6.619  0.1650  0.3316  0.1374
    1W        W57243  22.835  24.210   8.968 -0.0195  0.2371  0.3518
    1W        W57244  15.541   3.791   3.151 -0.0089  0.1372 -0.0841
    1W        W57245  20.459  25.164   1.933 -0.4681  0.3300 -0.1653
    1W        W57246  21.628  29.218   2.433 -0.2529  0.4856  0.0354
    1W        W57247  29.161  25.461   9.160 -0.2143  0.0930 -0.1711
    1W        W57248  12.494   3.234   2.977 -0.0748  0.0553  0.1654
    1W        W57249  17.778  24.462   9.325 -0.2061 -0.2831  0.0312
    1W        W57250  15.910  15.469   2.390 -0.1963  0.0782  0.1128
    1W        W57251  11.801  10.822   8.868  0.2449 -0.2403  0.0962
    1W        W57252  21.398  10.616   7.718  0.1142  0.0740  0.0187
    1W        W57253  22.790  24.886   2.478  0.1853 -0.0242 -0.2018
    1W        W57254  26.624  29.538   8.406 -0.0322 -0.1068  0.2320
    1W        W57255  22.327   8.511   1.318 -0.0799  0.1178  0.1745
    1W        W57256  13.836  13.310   7.453  0.3273  0.1901 -0.2265
    1W        W57257  23.682  12.042   8.309  0.1655  0.0063  0.0977
    1W        W57258   3.867  10.404   8.793  0.2360 -0.0742  0.0936
    1W        W57259  14.383  16.486   7.154 -0.3156  0.1621  0.0475
    1W        W57260  27.410   4.704   0.220 -0.0545  0.2383  0.3153
    1W        W57261  17.790  19.118   1.919  0.0762 -0.0054  0.0083
    1W        W57262  19.071  22.951   0.486  0.0140 -0.4148  0.0534
    1W        W57263  15.657   6.124   3.730 -0.1388  0.0201  0.1845
    1W        W57264  22.666  12.682   7.750  0.1098  0.2651 -0.1200
    1W        W57265  20.365   1.693   8.993  0.0370  0.1132 -0.1950
    1W        W57266   9.800   7.915   2.693  0.1366  0.1490  0.2666
    1W        W57267  17.236   5.947   2.916 -0.0622  0.0018 -0.1189
    1W        W57268  10.578  25.684   6.799 -0.0183  0.4350 -0.1863
    1W        W57269  23.337   0.918   8.288 -0.1613  0.0772 -0.0518
    1W        W57270   8.212  29.560   5.961 -0.2088 -0.2094  0.0196
    1W        W57271  16.066   7.194   9.406  0.0101 -0.2103 -0.1703
    1W        W57272  19.203  15.087   8.851 -0.1605  0.0117 -0.1676
    1W        W57273  28.864  26.596   9.219  0.0063 -0.0734 -0.2280
    1W        W57274  11.589   0.294   3.008 -0.0978 -0.0220  0.1327
    1W        W57275   5.562   4.303   7.464 -0.0996 -0.1160 -0.2303
    1W        W57276  24.246  19.644   8.034  0.1673  0.0914  0.1511
    1W        W57277   9.618   5.837   7.420  0.1535  0.1835  0.0691
    1W        W57278   8.214  27.472   1.682  0.1970 -0.0956 -0.1531
    1W        W57279   7.531  19.615   6.962  0.0920 -0.1303 -0.2841
    1W        W57280   1.532  14.796   7.602 -0.3047 -0.1147  0.2755
    1W        W57281  25.941  24.236   7.103 -0.1206  0.0576  0.3643
    1W        W57282   7.231  14.449   2.663 -0.0319 -0.2130 -0.2624
    1W        W57283   5.829   1.587   6.223 -0.0454  0.3050 -0.1261
    1W        W57284   9.126  12.002   2.089  0.0455  0.2413  0.3115
    1W        W57285  25.150  29.400   1.565 -0.3533  0.0252 -0.0048
    1W        W57286  17.979  27.500   2.126  0.1230 -0.0144  0.2654
    1W        W57287  24.828   3.388   2.878 -0.3304 -0.0001  0.2104
    1W        W57288  26.592  28.449   2.647  0.1070  0.0166  0.2371
    1W        W57289   1.683   1.758   7.554 -0.0661  0.0436  0.1746
    1W        W57290  24.900   5.883   8.109  0.4303  0.2774 -0.2059
    1W        W57291  29.494  11.693   6.391 -0.0457  0.0311 -0.1005
    1W        W57292   1.106   5.719   1.875 -0.1459 -0.0997 -0.0933
    1W        W57293  24.836  16.261   7.341 -0.0124  0.0302  0.1521
    1W        W57294  24.766  15.029   2.194  0.1799 -0.1823  0.1885
    1W        W57295   7.562   7.060   8.829  0.0834 -0.3017 -0.0757
    1W        W57296  29.293   3.058   7.740 -0.0674 -0.1191 -0.3592
    1W        W57297   0.834   1.288   8.866  0.1205  0.1678 -0.3256
    1W        W57298  16.145  21.263   6.251 -0.1493 -0.2218 -0.0609
    1W        W57299   3.413  11.841   7.401 -0.0379 -0.1389  0.0881
    1W        W57300   9.267   4.408   8.531 -0.1649 -0.0957 -0.3621
    1W        W57301   1.062  22.047   7.565 -0.0121  0.0194 -0.0092
    1W        W57302   8.606   1.568   6.819  0.3790 -0.1486  0.1698
    1W        W57303  27.820   9.320   3.229  0.0990 -0.0364 -0.2466
    1W        W57304  14.122  20.389   6.851  0.3061  0.0703 -0.0990
    1W        W57305  23.945  12.850   1.485  0.0340 -0.1353 -0.1412
    1W        W57306  16.802  12.032   8.311 -0.0975  0.4039  0.0679
    1W        W57307   6.433  25.566   9.460  0.0386 -0.1143 -0.2317
    1W        W57308   1.443   3.515   8.397 -0.0649 -0.1286  0.3263
    1W        W57309   8.285  27.386   9.329  0.2343  0.1001  0.1500
    1W        W57310  13.524  13.586   8.722 -0.1438  0.1193 -0.0993
    1W        W57311  19.342  17.554   0.416  0.0565 -0.1465 -0.0042
    1W        W57312  27.799  17.223   8.903 -0.2686  0.0906 -0.0830
    1W        W57313  29.853  11.862   7.133  0.1785  0.1382  0.0243
    1W        W57314  23.473  28.058   8.582 -0.2715  0.0564 -0.2361
    1W        W57315  19.600  25.342   1.776 -0.0541 -0.1594  0.2267
    1W        W57316   5.461  13.379   1.917  0.3240  0.0006 -0.2739
    1W        W57317  16.747  15.006   7.008  0.1742  0.3170 -0.0169
    1W        W57318  25.413  10.245   0.088 -0.3157  0.1258  0.0156
    1W        W57319  26.177  16.543   8.790 -0.2241 -0.3053  0.2979
    1W        W57320  10.032  18.430   8.516 -0.0497  0.1382  0.1041
    1W        W57321  25.548  23.142   7.434 -0.1880 -0.1582 -0.3593
    1W        W57322  14.320   8.672   8.494  0.1093 -0.0160  0.0391
    1W        W57323  27.267  28.021   9.306 -0.1874 -0.1032  0.1677
    1W        W57324  29.083  21.569   6.693 -0.0556 -0.0333  0.1746
    1W        W57325  15.666  21.315   6.911 -0.1325 -0.2570 -0.2708
    1W        W57326   7.953  10.238   1.018 -0.2461  0.0723  0.0568
    1W        W57327   4.632  17.265   0.285  0.1128  0.0472 -0.1614
    1W        W57328  22.637  14.586   7.949 -0.0066 -0.3523 -0.2968
    1W        W57329  19.385  11.045   0.725  0.0656 -0.1537 -0.0196
    1W        W57330  22.914  24.430   2.455 -0.0758 -0.2754  0.0374
    1W        W57331  16.611  27.153   7.418  0.0721 -0.2174 -0.3733
    1W        W57332   2.502   2.069   0.054 -0.2417  0.2201 -0.0993
    1W        W57333   9.384   2.636   2.105  0.0905 -0.1649  0.1371
    1W        W57334  19.921  11.340   8.832  0.0315 -0.3759 -0.3427
    1W        W57335   4.342  23.633   1.062  0.2013  0.2606  0.1593
    1W        W57336  23.457   2.040   0.846 -0.1325  0.2877 -0.0766
    1W        W57337  18.847   0.461   2.143 -0.3325 -0.0068  0.0619
    1W        W57338  24.764  17.500   6.900  0.0974 -0.4023  0.1592
    1W        W57339  14.937  19.255   8.591  0.1566 -0.1713 -0.2141
    1W        W57340  10.128  17.175   7.447  0.1899 -0.1038 -0.1521
    1W        W57341  11.071  15.897   6.687  0.0336 -0.3862 -0.0805
    1W        W57342  15.942  20.034   8.966 -0.3285  0.1968 -0.1894
    1W        W57343  27.529  26.357   0.511 -0.0785 -0.0350 -0.3596
    1W        W57344   8.299  11.103   2.673  0.1688  0.1409  0.2097
    1W        W57345   4.994  23.523   6.829  0.2112 -0.1180  0.2807
    1W        W57346  28.749   3.007   6.336 -0.0765  0.0934  0.1085
    1W        W57347  17.905  15.135   1.036  0.1525 -0.0565 -0.0823
    1W        W57348  17.991   0.865   8.974  0.1469 -0.1038 -0.1198
    1W        W57349  10.722  24.134   8.205 -0.0685 -0.0906 -0.1562
    1W        W57350  15.846  13.714   6.639 -0.0963  0.2105 -0.3279
    1W        W57351   3.274  24.150   0.892  0.1480  0.1104  0.2267
    1W        W57352  18.628  22.727   5.355  0.1081  0.0323  0.0445
    1W        W57353  25.056  12.299   9.143  0.2521  0.1274 -0.1082
    1W        W57354   2.395   6.809   3.372 -0.1267 -0.1045 -0.1103
    1W        W57355  26.024   3.061   6.567 -0.0521 -0.1771 -0.0760
    1W        W57356  14.667   6.729   8.723  0.3593 -0.1873 -0.0213
    1W        W57357   1.516  17.485   7.942  0.0106 -0.0794  0.2139
    1W        W57358  23.719  21.282   2.427  0.0602  0.0365  0.0920
    1W        W57359  27.462   2.083   2.891 -0.0151 -0.0449 -0.1197
    1W        W57360   0.534   1.347   9.272  0.0947 -0.0132  0.3396
    1W        W57361  10.321  29.002   2.249 -0.2895  0.1703 -0.0308
    1W        W57362   4.842   8.330   0.371  0.0236 -0.0617  0.0047
    1W        W57363  11.746   4.927   0.158 -0.1204  0.0794  0.0739
    1W        W57364  26.367  20.479   2.062 -0.0498  0.1100  0.2274
    1W        W57365   5.741  28.980   8.514  0.2866 -0.0673  0.2357
    1W        W57366  24.384  10.032   2.525 -0.2530  0.0333  0.0419
    1W        W57367  23.154   7.013   9.029  0.0742  0.1852 -0.0440
    1W        W57368  26.762   1.171   0.009  0.0121  0.2551 -0.3258
    1W        W57369  25.528  24.426   3.420  0.1621  0.0417  0.3527
    1W        W57370  18.970  18.458   9.017  0.0387  0.2535  0.0654
    1W        W57371   2.256   3.161   8.152 -0.3383  0.0050 -0.1127
    1W        W57372   3.918  24.427   8.021  0.0311 -0.0659 -0.1776
    1W        W57373   4.307  19.032   1.743  0.2018 -0.0165 -0.0647
    1W        W57374  28.180   2.808   7.986 -0.1501  0.2006  0.1219
    1W        W57375   9.792  18.138   7.217  0.0696 -0.3300  0.2153
    1W        W57376  16.046  13.144   9.340 -0.1750  0.1576 -0.2506
    1W        W57377  28.107   5.749   8.320 -0.4505  0.0686 -0.4792
    1W        W57378   2.740   1.565   0.359  0.1660  0.1739 -0.0954
    1W        W57379  24.642  14.113   0.164  0.0183 -0.2028  0.1202
    1W        W57380   3.878  24.777   0.081  0.4337 -0.2237 -0.4018
    1W        W57381  23.659  16.538   1.745 -0.0631  0.0496  0.1514
    1W        W57382   4.431  25.557   6.360  0.0374 -0.1049 -0.1061
    1W        W57383   5.086  17.135   7.183  0.1733  0.0654  0.1138
    1W        W57384  21.532  12.563   1.293  0.2841  0.1400  0.0713
    1W        W57385   9.716   7.143   8.207  0.1497  0.0364  0.1936
    1W        W57386  12.190   2.118   0.802  0.0343  0.0903 -0.1079
    1W        W57387  22.808  28.584   3.890  0.2786 -0.0420 -0.4132
    1W        W57388  12.601  18.033   8.843 -0.3064  0.1823 -0.2422
    1W        W57389  12.570  14.610   7.231 -0.0196  0.3590  0.3917
    1W        W57390  24.769   8.891   2.215  0.1824  0.2996 -0.3428
    1W        W57391  10.200  26.299   7.659  0.3372  0.2424 -0.0865
    1W        W57392  23.122  14.919   6.665 -0.0090 -0.2386 -0.0394
    1W        W57393   1.118  20.537   2.301  0.1724 -0.1967  0.0151
    1W        W57394  13.012  17.554   0.800  0.0558  0.1657 -0.2299
    1W        W57395  28.041   3.746   6.563 -0.0072 -0.0661 -0.2180
    1W        W57396  16.533   9.304   8.103  0.0908 -0.2340  0.0576
    1W        W57397  28.822  14.490   0.446  0.3883 -0.0537 -0.0683
    1W        W57398  10.553  15.140   7.614  0.1214 -0.1737 -0.3370
    1W        W57399  15.955   9.319   8.890 -0.0649  0.0971  0.0130
    1W        W57400  16.481  23.409   6.770 -0.0624 -0.2055  0.1438
    1W        W57401   2.876  28.812   6.091  0.2156 -0.1062  0.1984
    1W        W57402  25.259  25.461   6.890  0.0006  0.0038 -0.0951
    1W        W57403  20.706  15.594   1.662  0.3467 -0.1754 -0.0299
    1W        W57404  21.623   5.192   1.004  0.6197 -0.1975 -0.0030
    1W        W57405  28.789   0.603   1.203 -0.2145  0.0270  0.0572
    1W        W57406   1.130  15.127   8.777  0.0119 -0.0250  0.1937
    1W        W57407  10.302   8.387   1.318 -0.2313 -0.2309  0.3695
    1W        W57408  10.259   8.559   9.005  0.1243  0.2446 -0.0769
    1W        W57409   0.277   3.968   2.241 -0.2685  0.1205  0.0690
    1W        W57410  27.918  11.247   0.644 -0.3338 -0.0432 -0.0690
    1W        W57411  24.744  16.300   7.844 -0.3063 -0.1402 -0.0975
    1W        W57412  23.482   7.161   2.348 -0.0258  0.1227 -0.0194
    1W        W57413  26.805  17.361   9.519 -0.0151  0.1458  0.1365
    1W        W57414  11.839  26.913   0.377 -0.2017  0.2985 -0.1620
    1W        W57415  29.029   7.506   0.933  0.0113 -0.3437 -0.1376
    1W        W57416  13.713  25.122   1.838 -0.3001  0.0021 -0.1522
    1W        W57417   4.300  22.123   2.049  0.0507 -0.0506  0.0684
    1W        W57418  14.045  15.161   9.471  0.1018  0.2411 -0.1086
    1W        W57419   1.529   2.659   2.312 -0.1878  0.1513 -0.4562
    1W        W57420   1.657  10.443   2.626  0.1520  0.0817 -0.0431
    1W        W57421   3.608  27.770   5.417 -0.0462 -0.4737  0.0266
    1W        W57422  17.542  14.701   1.781 -0.1428 -0.0441  0.0055
    1W        W57423  21.226   2.906   8.846  0.2886  0.0771  0.1497
    1W        W57424   0.308  20.081   6.469 -0.2858  0.0485  0.1008
    1W        W57425  14.889  23.915   6.279  0.0381 -0.3275  0.1469
    1W        W57426   7.709   7.272   2.004  0.0051 -0.1130  0.2330
    1W        W57427  26.193   3.611   0.029 -0.0895  0.0218  0.1710
    1W        W57428   5.508  14.058   6.501  0.1974 -0.1637  0.1342
    1W        W57429  16.685  13.774   7.220 -0.0163  0.1251 -0.2317
    1W        W57430   5.186   3.361   0.314 -0.0848  0.0784  0.2910
    1W        W57431   8.833  18.861   6.951 -0.2563 -0.0699 -0.1094
    1W        W57432  25.133  25.270   8.979  0.0443 -0.0868 -0.1546
    1W        W57433   2.199  18.062   7.814  0.2859 -0.0028 -0.0559
    1W        W57434  27.883  26.614   8.253  0.0559 -0.1508 -0.0249
    1W        W57435  22.406  13.376   8.387 -0.1200 -0.3093  0.0705
    1W        W57436   4.195  13.355   7.388 -0.0507  0.0909 -0.1957
    1W        W57437  17.600   4.985   2.832 -0.1762 -0.0449  0.0969
    1W        W57438   8.054  29.204   3.281 -0.0932 -0.0535  0.0924
    1W        W57439   0.402  25.769   7.902 -0.0523  0.1247  0.2050
    1W        W57440   8.854  15.185   7.731  0.0662 -0.2590  0.0526
    1W        W57441   9.460  16.460   6.945 -0.0381  0.2117  0.0570
    1W        W57442  17.911  24.644   7.573  0.0107 -0.1532  0.0845
    1W        W57443  29.344  24.706   7.455 -0.0972  0.0785 -0.0755
    1W        W57444  11.576  27.280   7.525 -0.1467  0.0259  0.0645
    1W        W57445  14.954   2.569   0.575 -0.3313  0.0641 -0.2556
    1W        W57446  27.187  15.406   8.060  0.0787 -0.0401  0.1247
    1W        W57447   9.320   0.720   8.107 -0.0851 -0.3041  0.0147
    1W        W57448  22.563   3.781   2.715  0.0913 -0.2134 -0.1738
    1W        W57449  16.739  21.036   8.211  0.0608  0.0955  0.3273
    1W        W57450   7.790  18.971   7.945 -0.1525  0.4215 -0.1058
    1W        W57451   0.499  13.109   0.809  0.0388  0.0432  0.2276
    1W        W57452  10.378  13.027   0.382  0.0172 -0.1860 -0.3633
    1W        W57453   8.252   6.375   1.765 -0.2501  0.1136  0.0377
    1W        W57454  23.708   8.955   8.681 -0.1901  0.0828  0.2180
    1W        W57455   6.927  21.624   2.688  0.0115  0.1082 -0.1865
    1W        W57456  28.955  27.594   8.300 -0.3584 -0.0224 -0.2134
    1W        W57457  17.181  25.563   6.935  0.2737  0.0571 -0.2320
    1W        W57458  12.690  25.740   0.853  0.0700  0.1439  0.1151
    1W        W57459  23.813  27.430   0.996  0.2324 -0.0005 -0.2390
    1W        W57460  13.302   8.560   7.542  0.0085  0.1080 -0.2224
    1W        W57461  15.290  21.688   7.882  0.0245  0.1239 -0.0964
    1W        W57462   6.827  10.085   0.004 -0.2408 -0.1945 -0.1301
    1W        W57463  20.832  21.684   0.963 -0.2649  0.3653  0.0496
    1W        W57464  22.789  10.172   1.525  0.0741 -0.2608 -0.1389
    1W        W57465  17.530  21.533   6.363  0.0408  0.3802 -0.0252
    1W        W57466  10.994  26.345   7.865  0.1203  0.1781  0.0389
    1W        W57467  22.175   9.118   7.714 -0.0791 -0.0264 -0.0159
    1W        W57468   2.786  13.263   1.427 -0.0348 -0.2865 -0.1919
    1W        W57469  12.839  28.455   9.342 -0.0688  0.2337 -0.0642
    1W        W57470   6.911  16.810   8.910  0.3690 -0.2726  0.2318
    1W        W57471   6.722  15.862   7.090  0.1370  0.0218 -0.2540
    1W        W57472  22.925  29.636   7.873  0.0301  0.0494 -0.0582
    1W        W57473  25.158  17.738   8.304 -0.1293  0.0892 -0.1279
    1W        W57474   8.006   1.782   2.677  0.2925 -0.2270  0.0021
    1W        W57475   1.826  16.292   8.256 -0.0361 -0.1447  0.1819
    1W        W57476  14.701  20.259   0.955 -0.2121 -0.0356  0.2607
    1W        W57477   8.356  17.026   2.407 -0.2833  0.0143 -0.3152
    1W        W57478   3.303   1.126   2.296 -0.1541  0.0300  0.3410
    1W        W57479  28.309  26.126   6.372  0.0298  0.0281  0.0901
    1W        W57480   1.208  24.811   6.666 -0.2385  0.2768  0.2413
    1W        W57481  21.579  25.410   0.650 -0.0522  0.1319 -0.0268
    1W        W57482   8.849  20.281   7.059  0.0643 -0.0950 -0.0953
    1W        W57483  10.761  21.158   6.270  0.1660  0.1166 -0.0579
    1W        W57484   4.168  19.937   9.470 -0.0230 -0.1977 -0.1419
    1W        W57485  19.360  13.421   9.505 -0.0098 -0.0024  0.2095
    1W        W57486  19.902   7.913   8.604  0.3023  0.1161 -0.0689
    1W        W57487   1.076  25.408   1.491 -0.0616  0.0675  0.0508
    1W        W57488  12.141   2.564   7.628 -0.2836 -0.2440  0.2515
    1W        W57489  27.718  17.930   6.405  0.0172  0.2430 -0.1252
    1W        W57490  25.866  24.185   8.076 -0.2493  0.3000 -0.0510
    1W        W57491   2.238  29.344   7.099 -0.2168 -0.1383  0.1255
    1W        W57492  18.373  16.574   1.546  0.1272  0.1766  0.3053
    1W        W57493  19.715  17.601   8.598 -0.0381  0.0978  0.1791
    1W        W57494   0.743   8.997   1.562  0.3781  0.0941  0.0741
    1W        W57495   1.819  17.842   2.796  0.0838 -0.2131  0.0259
    1W        W57496   7.580  29.347   2.032 -0.5082  0.2339  0.3028
    1W        W57497  19.632  26.213   2.025 -0.3206 -0.3880 -0.1539
    1W        W57498  23.494  12.063   8.764  0.1558  0.1770  0.1491
    1W        W57499   3.797  10.667   2.665  0.2283 -0.0862 -0.1323
    1W        W57500   8.269  27.540   6.986 -0.0264  0.0146  0.1854
    1W        W57501  27.207   3.531   8.214  0.2830 -0.0182  0.2809
    1W        W57502  18.371  29.535   0.993 -0.0918 -0.2410 -0.0094
    1W        W57503  19.726  17.253   0.031  0.2501 -0.0099  0.3255
    1W        W57504   3.764  22.881   8.288 -0.0572  0.2239 -0.0232
    1W        W57505  23.874  22.307   6.999  0.1912  0.1667 -0.1857
    1W        W57506  11.717   0.610   0.210 -0.0324 -0.1278  0.3219
    1W        W57507  22.958  24.909   7.398 -0.1934 -0.2947  0.0002
    1W        W57508  21.309  27.186   7.885 -0.1379 -0.5816 -0.2008
    1W        W57509   6.572  22.792   8.344  0.1250 -0.0761  0.3911
    1W        W57510   8.905  28.809   6.830 -0.3072  0.0162 -0.3428
    1W        W57511   4.671   2.237   0.030  0.0037 -0.1048  0.1030
    1W        W57512  18.616  27.783   2.437 -0.1322  0.1165 -0.1902
    1W        W57513   9.670   5.506   0.290  0.0716  0.0818 -0.0707
    1W        W57514  25.540  17.617   2.255 -0.1607 -0.0456 -0.1746
    1W        W57515   1.057  18.749   0.874 -0.1257 -0.0641 -0.0876
    1W        W57516  26.396  24.853   1.997  0.2397  0.0240 -0.2758
    1W        W57517   3.929  18.183   2.700  0.1086 -0.2882  0.2032
    1W        W57518  14.121  16.253   8.178 -0.2847  0.0588  0.4579
    1W        W57519  13.687  19.273   8.588  0.1149 -0.0639  0.0764
    1W        W57520  27.016  15.988   9.301  0.1684 -0.1863  0.2833
    1W        W57521  10.432  24.240   7.407 -0.0597 -0.0530  0.0469
    1W        W57522  29.510  26.631   7.249  0.1374 -0.0737 -0.0329
    1W        W57523   0.118   3.025   1.900 -0.1664 -0.2351 -0.1072
    1W        W57524  24.988   0.595   8.511 -0.1658  0.0374  0.0526
    1W        W57525  17.774  27.040   9.218 -0.2057  0.0262  0.1659
    1W        W57526   6.304  27.519   8.265 -0.1828  0.0080 -0.3652
    1W        W57527  10.907  10.399   0.734  0.0300 -0.0134 -0.1398
    1W        W57528  29.149   7.078   1.299 -0.3526 -0.0791  0.1423
    1W        W57529  26.906  29.291   8.080  0.2174 -0.0342  0.0018
    1W        W57530   4.425  25.319   5.338  0.1411 -0.0131  0.1132
    1W        W57531  16.287  25.797   8.041 -0.0990 -0.0631 -0.0017
    1W        W57532   2.285  21.170   1.296  0.3202  0.2693  0.3511
    1W        W57533   9.832  27.862   7.080  0.2180  0.1220  0.2489
    1W        W57534  21.893  20.739   0.938  0.2159 -0.0887 -0.0900
    1W        W57535  19.481   0.568   2.928 -0.1553  0.0148 -0.0801
    1W        W57536   8.131  12.014   8.467  0.1243 -0.0540  0.0099
    1W        W57537  10.356  29.595   7.621  0.0750 -0.3663  0.0426
    1W        W57538  10.347  28.134   1.890  0.1662 -0.0093  0.5055
    1W        W57539  27.186  12.189   7.171  0.0527 -0.0946  0.3178
    1W        W57540  19.729  13.655   8.153 -0.3123  0.0804  0.1030
    1W        W57541  24.736  14.644   7.687 -0.0072  0.3901  0.3739
    1W        W57542  26.164  25.186   6.915 -0.1661  0.1430 -0.1493
    1W        W57543  19.195  20.593   0.312 -0.0458 -0.0892 -0.2272
    1W        W57544  20.881  19.886   6.466 -0.3863 -0.1698  0.0836
    1W        W57545  12.210  25.729   9.421  0.1163  0.3801 -0.1697
    1W        W57546  16.550  22.037   0.721 -0.3995  0.0706 -0.1273
    1W        W57547  27.780   8.631   2.467  0.1018 -0.2775  0.4631
    1W        W57548   3.282   3.054   1.510 -0.1313 -0.3307  0.1460
    1W        W57549  17.606  25.027   5.792 -0.2053 -0.4032 -0.2517
    1W        W57550   1.097  13.702   0.356 -0.1878  0.0338 -0.0240
    1W        W57551   1.922  10.906   6.771  0.0956 -0.1487 -0.0122
    1W        W57552  21.456  25.751   7.465  0.3110  0.0353  0.0374
    1W        W57553  15.383   9.742   1.215 -0.0661 -0.0121 -0.0936
    1W        W57554   0.730   9.845   9.063 -0.0594 -0.0734 -0.3181
    1W        W57555  17.183  12.373   7.488 -0.2011  0.0999 -0.3003
    1W        W57556  12.770  12.452   3.129  0.1169  0.1616 -0.0027
    1W        W57557  25.828  21.730   9.380  0.1748 -0.3238  0.0358
    1W        W57558  11.751  19.631   7.413 -0.0340  0.3509 -0.2072
    1W        W57559  27.651   3.513   8.964 -0.0295 -0.0345 -0.0035
    1W        W57560  11.241  23.526   1.202 -0.1993 -0.2164  0.0881
    1W        W57561   4.226  29.289   7.502 -0.2198 -0.1512 -0.2256
    1W        W57562   4.956   7.168   2.759 -0.2190 -0.3102 -0.2029
    1W        W57563  22.979   1.457   7.450  0.1712 -0.5024  0.0494
    1W        W57564  21.115  19.083   6.867 -0.0306 -0.2299  0.3825
    1W        W57565   7.163  26.241   1.341  0.2645  0.0623  0.1089
    1W        W57566   4.001  15.086   9.190 -0.2166  0.1308 -0.0726
    1W        W57567   9.627  19.575   1.315  0.1050  0.1575 -0.0762
    1W        W57568  25.828   7.371   8.745  0.1245  0.3843 -0.3288
    1W        W57569  17.552  11.161   7.530  0.0575 -0.0976  0.2618
    1W        W57570   7.322   4.129   8.411 -0.1425 -0.0624  0.3359
    1W        W57571  10.730   6.477   1.565  0.0257  0.0616  0.1972
    1W        W57572  21.801   8.485   1.061 -0.0948  0.1827  0.0558
    1W        W57573   4.057   1.768   0.434  0.0806  0.0186 -0.0293
    1W        W57574   2.726  23.076   7.721 -0.0374  0.0804 -0.1335
    1W        W57575   1.916   3.135   1.189  0.2839 -0.0167 -0.0315
    1W        W57576   0.640  12.219   0.326 -0.1275  0.3946  0.2031
    1W        W57577   0.322  19.741   6.116 -0.3291  0.1194  0.1290
    1W        W57578   9.417  26.570   7.956 -0.1038 -0.1109 -0.0761
    1W        W57579   9.666   2.893   9.313  0.0455 -0.0413  0.1659
    1W        W57580  25.472  22.145   1.663  0.2396  0.0754  0.0089
    1W        W57581   9.403  24.612   0.395 -0.1956  0.0448 -0.1406
    1W        W57582   4.111  27.144   6.024  0.3545  0.1215 -0.0922
    1W        W57583   4.011  19.040   8.760  0.1180  0.1168 -0.2835
    1W        W57584   1.193  28.922   0.731 -0.1198 -0.0747 -0.2280
    1W        W57585  20.307  13.126   0.803 -0.0878 -0.0088  0.1349
    1W        W57586  16.135   0.190   8.682  0.0278 -0.0698  0.2718
    1W        W57587   4.851  20.775   0.387  0.1828 -0.1937  0.0405
    1W        W57588  27.379  29.316   8.078 -0.1936  0.2336 -0.1082
    1W        W57589  18.398  13.330   1.710 -0.0166  0.0143 -0.1022
    1W        W57590  21.552  18.149   6.307  0.0932 -0.1461  0.0822
    1W        W57591   5.906  13.662   3.052 -0.1440 -0.0529 -0.0164
    1W        W57592  17.938  17.814   5.841  0.1313 -0.0635  0.2960
    1W        W57593  14.077  25.392   6.594 -0.0378 -0.0530 -0.1187
    1W        W57594   2.899  14.520   1.946 -0.0112 -0.1292 -0.1386
    1W        W57595  13.274   0.478   0.472  0.0184 -0.1614  0.1281
    1W        W57596   1.989  27.261   1.486 -0.1462  0.2657 -0.0443
    1W        W57597  15.443  23.224   0.859 -0.0735 -0.0156 -0.2762
    1W        W57598   9.656  15.229   7.140  0.4137 -0.1475 -0.0847
    1W        W57599  11.424  21.851   8.528 -0.1508  0.3552 -0.1326
    1W        W57600  16.250  22.249   9.185  0.0556 -0.2894 -0.3598
    1W        W57601  16.926  16.058   1.583 -0.2967  0.0733  0.2770
    1W        W57602  18.124  19.388   6.342 -0.0692 -0.1318 -0.1622
    1W        W57603  27.005  21.831   8.710 -0.0151 -0.3515 -0.0509
    1W        W57604  27.386   4.848   0.807 -0.0807 -0.0011 -0.0180
    1W        W57605  27.189  17.056   2.435  0.1579  0.0402  0.2565
    1W        W57606  18.368   1.841   1.765  0.0438 -0.3384  0.1215
    1W        W57607  19.828  21.123   7.179  0.1638  0.0079 -0.1918
    1W        W57608   7.125  20.353   0.931  0.0180 -0.3485  0.0657
    1W        W57609  24.060  24.196   6.853 -0.0800 -0.2022  0.2153
    1W        W57610  15.475   4.636   0.126  0.1132 -0.0579  0.0430
    1W        W57611  25.066  20.067   8.136  0.1141  0.0943 -0.0033
    1W        W57612  15.652   7.252   2.078 -0.3705  0.0850  0.0205
    1W        W57613   7.476  15.434   0.470  0.1816  0.1579  0.0913
    1W        W57614  28.732  21.822   1.232 -0.1613 -0.0393 -0.1975
    1W        W57615  18.398   2.655   0.471 -0.1940  0.2357  0.2625
    1W        W57616   4.894   7.257   7.565  0.1614 -0.0337 -0.0013
    1W        W57617  26.114  22.478   0.192 -0.1578  0.2115 -0.1561
    1W        W57618   6.631   0.223   7.834 -0.0299 -0.1160  0.0263
    1W        W57619  10.302   9.081   2.123  0.0297 -0.1135 -0.1825
    1W        W57620  10.705   1.003   7.010 -0.2980 -0.1288  0.2885
    1W        W57621  21.849  16.202   7.275  0.1064  0.2737  0.0502
    1W        W57622  15.037  15.407   1.911  0.0995  0.0608 -0.1799
    1W        W57623  17.046  27.189   1.236 -0.2527 -0.0346  0.1341
    1W        W57624  17.711  18.838   8.005 -0.2099  0.0893  0.0571
    1W        W57625  26.939   9.292   1.890  0.2690 -0.0598  0.0587
    1W        W57626  18.493   9.576   7.742 -0.2680  0.2962 -0.1801
    1W        W57627   3.833  12.426   9.337  0.2541 -0.0744  0.2373
    1W        W57628  16.810   2.419   8.822 -0.0546  0.1777 -0.0675
    1W        W57629  10.252   7.909   1.758 -0.0188 -0.2193 -0.1454
    1W        W57630  16.418  18.279   9.422  0.0423 -0.0119 -0.1675
    1W        W57631   1.995  22.926   1.413  0.0634  0.1530 -0.3430
    1W        W57632   2.068  22.279   0.552  0.2136  0.0309 -0.0062
    1W        W57633  15.222   2.935   0.391  0.2039 -0.4043  0.3324
    1W        W57634  25.318  11.247   8.389  0.1371  0.2027 -0.1918
    1W        W57635  24.122  15.639   1.627  0.0008  0.1227  0.2534
    1W        W57636  23.286   0.669   2.690 -0.4613  0.0713 -0.1447
    1W        W57637  12.079  21.215   8.718 -0.0200 -0.4632  0.0496
    1W        W57638  16.627  22.098   8.901 -0.0753 -0.0594  0.1015
    1W        W57639  29.054   9.748   2.399  0.3929 -0.1025  0.1820
    1W        W57640  22.783  17.139   0.347 -0.3004  0.1937 -0.3115
    1W        W57641  24.136   0.945   8.691 -0.2400  0.1201  0.3442
    1W        W57642   1.069  21.674   0.260  0.0581  0.0242 -0.0987
    1W        W57643   0.319  23.499   8.602  0.0011 -0.0751 -0.2289
    1W        W57644  10.459   1.145   9.116  0.0526  0.0783 -0.1001
    1W        W57645   1.157   0.019   5.840  0.0654  0.0314  0.3301
    1W        W57646  15.848  16.500   7.332 -0.1966  0.0307  0.2129
    1W        W57647  25.141  21.532   6.838 -0.4253 -0.2623  0.2166
    1W        W57648   6.765   2.814   2.049  0.2886  0.0896 -0.0363
    1W        W57649   3.106  15.605   6.960 -0.3420  0.0285  0.0063
    1W        W57650  19.536  16.824   6.101  0.0575  0.2549  0.2115
    1W        W57651   7.634  18.802   2.196 -0.0486  0.1674  0.0926
    1W        W57652  16.133   7.158   1.383  0.1360  0.0790  0.1109
    1W        W57653  13.969  27.240   7.893 -0.3453 -0.0497  0.1177
    1W        W57654  10.513  22.956   0.663 -0.0710  0.0161  0.0842
    1W        W57655  13.857  27.357   7.397 -0.0739  0.3051  0.1750
    1W        W57656   3.195   3.892   1.097  0.0299  0.2345 -0.0649
    1W        W57657   3.407  25.549   8.207  0.2296  0.0474 -0.1823
    1W        W57658   6.343   1.222   6.976 -0.0129 -0.1054 -0.0478
    1W        W57659  17.017  12.971   9.415  0.1949  0.0343 -0.1921
    1W        W57660  26.870  29.206   8.772 -0.0639  0.0094 -0.1242
    1W        W57661  28.347  15.758   9.005  0.2465 -0.0139 -0.0126
    1W        W57662  23.378  26.521   9.091 -0.0214  0.5081  0.1667
    1W        W57663  27.897  25.803   6.433  0.2217  0.2036 -0.0727
    1W        W57664  22.152  13.931   9.083 -0.1445  0.0538 -0.2096
    1W        W57665  22.796   9.621   0.132 -0.1032 -0.2035 -0.2745
    1W        W57666   0.127   1.908   0.082 -0.0155  0.5279  0.0377
    1W        W57667   3.190   3.864   2.091 -0.0616  0.2898 -0.2682
    1W        W57668  12.044  10.977   7.620  0.0761 -0.1934 -0.3229
    1W        W57669  26.496  26.301   0.545  0.2484  0.2249  0.0889
    1W        W57670  12.757  19.889   0.463  0.3168  0.2332  0.0428
    1W        W57671  28.889  22.001   6.505 -0.0006 -0.2228  0.2592
    1W        W57672  15.357  27.791   2.869  0.2824 -0.0135 -0.1357
    1W        W57673   0.736  29.352   7.763 -0.0338 -0.1288 -0.1088
    1W        W57674   7.629  10.270   8.700 -0.2455 -0.2279  0.1656
    1W        W57675  10.791   5.279   2.954 -0.0796  0.0368  0.1185
    1W        W57676  11.637  13.235   5.693  0.1813  0.1593 -0.1191
    1W        W57677  28.029   5.166   8.577  0.0852 -0.1700  0.0234
    1W        W57678  17.681  29.543   1.679  0.0348  0.1349 -0.1268
    1W        W57679  18.636  19.174   7.580 -0.4092  0.0927 -0.3816
    1W        W57680  20.000   8.612   1.447 -0.2769 -0.0931 -0.1505
    1W        W57681  11.036  26.265   6.329 -0.2913 -0.0957 -0.1666
    1W        W57682  19.927  13.464   9.426  0.1674 -0.0177  0.1014
    1W        W57683   9.616  11.007   9.078  0.0622  0.2022  0.0783
    1W        W57684  25.026   4.624   0.748 -0.1450  0.1662  0.3062
    1W        W57685  15.242   0.780   0.899 -0.1868 -0.1073 -0.2156
    1W        W57686   3.660   7.536   8.418 -0.2197  0.2439 -0.0003
    1W        W57687  19.792  12.996   0.634  0.0313  0.1377 -0.1772
    1W        W57688  19.049  22.260   6.643  0.0694  0.4991  0.0900
    1W        W57689   3.030   8.285   2.094 -0.1664 -0.0549 -0.1066
    1W        W57690  19.207  16.953   6.428 -0.1101  0.0144 -0.4058
    1W        W57691   4.413  20.239   7.657  0.1376  0.1313 -0.0856
    1W        W57692   4.005   3.110   2.327 -0.0675  0.0943  0.3136
    1W        W57693  19.547   2.949   3.741  0.0309  0.2087  0.3032
    1W        W57694  20.351   3.184   9.071  0.0790 -0.3335  0.0822
    1W        W57695   0.765  17.091   7.459  0.2785 -0.0414 -0.0129
    1W        W57696   7.933  10.676   3.750  0.2383 -0.0680 -0.0328
    1W        W57697   8.868  12.764   1.400 -0.1204 -0.1011 -0.1144
    1W        W57698   1.483   2.310   7.651 -0.1206 -0.0962 -0.2279
    1W        W57699  12.459  16.567   8.888 -0.2636  0.1702 -0.1433
    1W        W57700  21.447   9.389   8.940  0.1329  0.0997  0.0357
    1W        W57701   3.120  26.770   8.784  0.0782 -0.0860 -0.0632
    1W        W57702   1.836  19.217   8.080 -0.3266  0.0027 -0.2067
    1W        W57703  25.214  26.565   3.141  0.1724  0.1854  0.1483
    1W        W57704  21.353   6.513   3.522  0.0872  0.1321 -0.3298
    1W        W57705   9.978  23.591   1.804  0.0899 -0.0982 -0.2196
    1W        W57706  25.527  18.810   7.365 -0.1922 -0.0678  0.1681
    1W        W57707   1.833   5.128   2.327  0.0935 -0.2030 -0.1553
    1W        W57708  21.541  27.095   1.257  0.0402 -0.0923 -0.1021
    1W        W57709   5.914   6.205   9.350 -0.0012  0.0487 -0.0654
    1W        W57710  24.476  12.956   9.496 -0.0697  0.0212  0.2461
    1W        W57711  25.852  27.470   9.281  0.0117 -0.2208  0.1579
    1W        W57712  20.277  24.629   1.002  0.0131 -0.1372  0.0311
    1W        W57713  26.430  23.575   8.288 -0.3747  0.0007 -0.0127
    1W        W57714  13.702  28.652   9.060  0.2405 -0.0119  0.2776
    1W        W57715  11.843   2.776   3.817  0.0161  0.1814  0.1962
    1W        W57716  10.230  14.520   6.778 -0.3049 -0.0849  0.1752
    1W        W57717  13.351   7.093   8.486 -0.1127 -0.2699 -0.0664
    1W        W57718  27.454   0.248   6.717 -0.2791 -0.2622  0.0158
    1W        W57719  14.159  14.464   7.152 -0.0653 -0.2448  0.2259
    1W        W57720   8.087  17.533   1.002  0.0180  0.3665 -0.1529
    1W        W57721  19.327  14.551   9.202  0.3490  0.0602  0.1385
    1W        W57722  19.882   1.365   1.965 -0.1832 -0.0392 -0.2772
    1W        W57723  19.911   3.208   0.111 -0.0067 -0.1006 -0.2031
    1W        W57724   6.412  15.108   0.756 -0.2039 -0.4026 -0.1237
    1W        W57725  15.204  11.565   2.662 -0.0767  0.0380 -0.0363
    1W        W57726   2.743   5.893   9.295  0.1649 -0.2590 -0.1162
    1W        W57727  16.239   9.350   1.313  0.0712 -0.1868  0.0863
    1W        W57728   1.079  23.857   6.851 -0.1529  0.0239 -0.1904
    1W        W57729  23.078  23.249   7.537  0.0988 -0.2610  0.0487
    1W        W57730  18.238  20.012   7.595  0.1136  0.3151 -0.1233
    1W        W57731  16.351   6.036   9.029  0.2702 -0.2346 -0.1807
    1W        W57732  23.905  28.939   2.009 -0.0829 -0.3724  0.1321
    1W        W57733   5.349  21.882   2.410 -0.1715  0.0560 -0.1124
    1W        W57734  24.006  14.664   1.769 -0.1291 -0.0871  0.3441
    1W        W57735  19.357   9.270   8.175 -0.0391 -0.2079  0.1046
    1W        W57736   0.118  23.503   9.430 -0.0525 -0.0204  0.1622
    1W        W57737  17.171  24.949   9.069  0.0040 -0.1665 -0.2305
    1W        W57738  11.820  24.959   9.494 -0.3559 -0.0036 -0.3512
    1W        W57739  17.118   8.109   1.598 -0.2540  0.3107  0.1005
    1W        W57740   4.916  18.554   7.733 -0.0999  0.1110  0.0496
    1W        W57741  10.304  23.285   7.144  0.1261 -0.1021 -0.0359
    1W        W57742  23.601  20.211   2.303 -0.2800  0.1291  0.1407
    1W        W57743   8.164   0.550   2.342 -0.0288  0.3959 -0.2302
    1W        W57744  23.855   3.547   1.417 -0.1087  0.0749  0.2845
    1W        W57745  11.462  14.637   7.993  0.1013 -0.0665  0.1674
    1W        W57746   7.624   5.793   7.604 -0.0931  0.0236 -0.3972
    1W        W57747  22.598   7.638   2.642 -0.0138 -0.2254 -0.0554
    1W        W57748  28.632   0.842   2.091  0.1753 -0.3086 -0.0245
    1W        W57749  28.042   6.639   1.407  0.0776 -0.0824 -0.0570
    1W        W57750  25.974   1.085   0.845 -0.1501  0.1987 -0.1380
    1W        W57751  15.313  25.369   5.496  0.0703  0.0664  0.1442
    1W        W57752  12.389   4.311   9.228 -0.1702 -0.0871 -0.0833
    1W        W57753  21.706  10.644   8.107  0.1380 -0.2294  0.2369
    1W        W57754  22.237  23.861   1.403 -0.2653 -0.1712 -0.0226
    1W        W57755  12.122   7.667   1.119 -0.0294  0.1051  0.1785
    1W        W57756   9.178  21.172   6.605 -0.3710 -0.0416 -0.2721
    1W        W57757  15.051   3.254   2.631 -0.1094 -0.1721  0.0226
    1W        W57758  11.580   5.235   2.441  0.0221 -0.4677  0.1105
    1W        W57759   1.618  23.557   7.900  0.0991 -0.0950  0.0679
    1W        W57760  14.353   1.169   1.985  0.1028  0.1535 -0.0169
    1W        W57761   3.912  11.195   9.276 -0.1966 -0.2434 -0.2534
    1W        W57762  11.161   3.485   1.644  0.1376 -0.4526  0.0968
    1W        W57763   5.996   4.940   7.335  0.0761 -0.1663  0.0342
    1W        W57764  11.933   9.250   2.599  0.0248  0.1986 -0.2145
    1W        W57765  19.105   1.990   0.178  0.3032  0.0391  0.1251
    1W        W57766  20.532   6.160   3.054  0.1873 -0.1781 -0.1564
    1W        W57767  24.867  24.445   1.305  0.1757  0.0314  0.5378
    1W        W57768  11.815  18.302   9.503 -0.1338 -0.1471  0.0034
    1W        W57769  16.879  14.448   8.435 -0.1335 -0.0311  0.1895
    1W        W57770   9.561  16.565   9.528  0.0391 -0.2053  0.1059
    1W        W57771   2.821  11.043   1.337 -0.0184 -0.3788  0.2557
    1W        W57772  23.717  22.542   1.056 -0.0799 -0.4524 -0.2122
    1W        W57773   6.041  19.942   0.322 -0.0371 -0.0030 -0.1923
    1W        W57774   7.594   8.812   0.402  0.0901  0.1217  0.3519
    1W        W57775   7.790   9.163   8.860  0.1320 -0.0025  0.1472
    1W        W57776  14.677  14.451   9.107  0.0037  0.2112 -0.2996
    1W        W57777   2.697  11.885   2.136 -0.0002 -0.2114  0.2110
    1W        W57778   7.112  15.794   0.309  0.0188  0.0028 -0.3159
    1W        W57779  26.063   3.732   8.585  0.1775 -0.0181 -0.0113
    1W        W57780  24.995  23.032   8.558  0.0206 -0.1404 -0.0959
    1W        W57781   8.221   1.472   7.205 -0.2460  0.0515  0.0789
    1W        W57782   6.253  22.938   1.125  0.0653  0.1817 -0.2048
    1W        W57783   4.598  21.723   1.131  0.0504 -0.0437 -0.0303
    1W        W57784  22.540   0.202   1.982 -0.1079  0.1555 -0.1803
    1W        W57785  27.361  10.577   2.272 -0.1910 -0.0321  0.0017
    1W        W57786   3.634  26.969   9.477 -0.0370  0.1811  0.5126
    1W        W57787   1.794  17.358   7.478  0.1224  0.0889 -0.1154
    1W        W57788   9.980   1.514   0.009 -0.0432  0.1971 -0.1043
    1W        W57789  15.581   2.206   8.723  0.0241 -0.0446  0.0067
    1W        W57790  25.187  18.666   0.208 -0.2661 -0.1144 -0.3115
    1W        W57791  10.999  27.670   1.733  0.0085 -0.1041  0.3877
    1W        W57792   5.865  22.793   9.048 -0.1900  0.0290  0.2213
    1W        W57793  16.458  27.447   7.052  0.0365 -0.1780  0.0351
    1W        W57794  15.646  27.128   7.661  0.1121 -0.0507 -0.2355
    1W        W57795   5.512   9.085   1.941 -0.1693  0.1611 -0.1106
    1W        W57796  18.993   1.459   8.538 -0.3559  0.2236  0.2049
    1W        W57797  24.929  17.397   9.475 -0.0125  0.0834  0.2425
    1W        W57798  20.082  26.399   1.810 -0.2853 -0.1385  0.1396
    1W        W57799   1.937   5.886   0.952  0.0601  0.0240  0.0680
    1W        W57800  23.850  19.990   0.296 -0.0903 -0.3338  0.1126
    1W        W57801  18.294  18.255   0.153 -0.4538 -0.1281 -0.1778
    1W        W57802  19.067  21.977   0.744  0.0712 -0.0728 -0.2044
    1W        W57803  21.923  23.344   1.447  0.2134 -0.1814 -0.0906
    1W        W57804  12.354  25.034   5.963  0.4088 -0.2441  0.0358
    1W        W57805  22.201   8.078   0.916 -0.1086  0.2133  0.2962
    1W        W57806   9.409  18.262   1.675 -0.1625  0.0531  0.1140
    1W        W57807   5.184  28.288   6.447  0.5482  0.0018 -0.0961
    1W        W57808   8.267  10.694   9.165 -0.0525 -0.0230 -0.2513
    1W        W57809   6.692   6.856   2.189 -0.0680  0.0862  0.1422
    1W        W57810   0.658  15.114   8.523 -0.0211  0.2049 -0.0373
    1W        W57811  12.006  24.683   6.953  0.0061 -0.0544  0.1815
    1W        W57812   3.208  16.903   3.262  0.3245  0.2979 -0.1156
    1W        W57813  12.789   5.194   8.990  0.1343  0.2777  0.0174
    1W        W57814   8.607  12.125   0.172  0.2425  0.1235 -0.0232
    1W        W57815   3.516  15.353   6.324  0.3181 -0.3234 -0.0453
    1W        W57816  10.851   1.408   0.204 -0.2222  0.0310  0.1023
    1W        W57817  23.832   4.645   7.949 -0.0005  0.3025 -0.2040
    1W        W57818  17.934  13.117   1.572 -0.1047 -0.3955 -0.1296
    1W        W57819  15.272  27.458   1.244  0.0325  0.2935  0.2380
    1W        W57820   7.733   2.987   2.921  0.2920 -0.0566 -0.4012
    1W        W57821  24.827  29.099   8.025  0.0391 -0.1100  0.0886
    1W        W57822   0.434  18.013   0.415  0.2528  0.1115  0.2729
    1W        W57823   0.211  29.252   6.484 -0.1564  0.2439  0.0942
    1W        W57824  11.653  10.707   1.673 -0.0535  0.2141  0.0320
    1W        W57825   9.123   8.866   7.921  0.1811  0.0047 -0.1546
    1W        W57826  17.504   2.973   8.786 -0.4089 -0.1384 -0.3164
    1W        W57827  17.260  26.457   9.060 -0.0060 -0.0354  0.0635
    1W        W57828   6.045   0.683   0.319  0.1828  0.0216 -0.1560
    1W        W57829   4.733  19.920   0.560 -0.2123  0.2643 -0.4759
    1W        W57830  26.737   7.290   1.257  0.1972  0.1429  0.1274
    1W        W57831   1.615   0.177   1.058  0.0415 -0.4243 -0.0874
    1W        W57832  25.041  19.287   8.473 -0.0399  0.0528 -0.1540
    1W        W57833  22.707   6.391   1.698  0.3382 -0.1915 -0.2185
    1W        W57834  10.762  13.850   8.969  0.1630 -0.3366  0.0543
    1W        W57835  15.992  26.024   7.678  0.3416 -0.1355  0.2011
    1W        W57836  13.660   3.017   9.024  0.0356 -0.1602 -0.4647
    1W        W57837   8.893  18.564   6.572  0.1150 -0.0091  0.4055
    1W        W57838  22.282  21.236   2.645 -0.2938 -0.2055  0.1345
    1W        W57839   1.735   5.068   1.469 -0.1050  0.3929 -0.0945
    1W        W57840  22.982  26.376   6.989  0.0125  0.0675 -0.1549
    1W        W57841  22.912  19.157   0.013 -0.0253 -0.1488 -0.0075
    1W        W57842  13.868   9.607   0.356  0.1018  0.1811  0.2159
    1W        W57843   9.588  25.060   8.159  0.2576  0.0452  0.0843
    1W        W57844   9.684   5.092   2.970  0.0385  0.2254  0.0076
    1W        W57845   3.546  10.288   2.950  0.1068 -0.0553 -0.2623
    1W        W57846  27.244   1.247   8.333 -0.1461  0.0071 -0.0677
    1W        W57847  16.802   9.895   2.028  0.0132  0.0475  0.0493
    1W        W57848   3.179  18.978   8.151  0.0520 -0.0678 -0.0675
    1W        W57849  27.964  23.998   6.698  0.0689 -0.0033  0.2265
    1W        W57850  26.281  27.669   9.336  0.1319  0.1727  0.2347
    1W        W57851  15.388  15.524   2.268 -0.0106  0.0361  0.0801
    1W        W57852   5.993  19.216   0.903  0.2396  0.0326 -0.3270
    1W        W57853  26.794   9.473   1.107  0.1304 -0.0440  0.0741
    1W        W57854  28.970  11.713   8.264 -0.1659 -0.1817  0.1425
    1W        W57855  11.868  21.108   1.743  0.2743 -0.5269  0.1416
    1W        W57856  11.527   8.478   8.173 -0.1814  0.3247  0.0105
    1W        W57857  18.525  25.552   9.051  0.2222 -0.4317  0.2256
    1W        W57858  15.737  24.051   2.013  0.2036  0.0225 -0.0106
    1W        W57859  24.974   8.650   9.086  0.1004  0.1595  0.2263
    1W        W57860  11.013   4.084   3.038  0.0740  0.1619  0.3481
    1W        W57861  10.383   3.027   3.797 -0.1132  0.0586 -0.0321
    1W        W57862  12.488  22.352   0.070 -0.1214 -0.2248 -0.0584
    1W        W57863  12.676  18.446   1.244 -0.0250  0.4254  0.1822
    1W        W57864   2.151  10.728   8.528 -0.1491 -0.1722  0.1854
    1W        W57865   9.933   2.818   8.652  0.0956  0.1783  0.0806
    1W        W57866  11.836   1.043   2.744  0.0661 -0.1558 -0.1963
    1W        W57867  29.664   9.583   2.881 -0.1288  0.0496 -0.2249
    1W        W57868  20.858   0.165   3.278 -0.0426 -0.1538  0.1735
    1W        W57869   5.872   8.485   8.316 -0.3985 -0.0452 -0.2718
    1W        W57870  27.798   3.084   7.127 -0.2899 -0.1643  0.2343
    1W        W57871   9.616   7.343   7.775  0.3864  0.0807  0.2335
    1W        W57872  29.699   0.237   1.548  0.1316 -0.0573 -0.2776
    1W        W57873  28.699  15.620   7.761  0.2230 -0.1922  0.1508
    1W        W57874  15.789  11.233   9.465 -0.2403 -0.0753 -0.0477
    1W        W57875  20.231  10.329   9.478 -0.1321  0.0236  0.0264
    1W        W57876   3.455  28.356   0.524 -0.0196  0.2391 -0.1855
    1W        W57877  26.697   9.541   7.489 -0.0525 -0.2418  0.1008
    1W        W57878   9.371  27.603   0.445 -0.0223 -0.0105  0.2883
    1W        W57879  15.435  28.482   0.378  0.2024 -0.2269  0.2577
    1W        W57880  22.070  22.109   8.366 -0.2047 -0.0607 -0.2609
    1W        W57881  10.451   7.049   6.986  0.2881 -0.4248  0.1606
    1W        W57882   4.525  28.240   6.607  0.0897 -0.0866  0.2412
    1W        W57883  19.160   9.723   1.935  0.1385 -0.2705 -0.1060
    1W        W57884  15.538  24.293   1.142  0.0549  0.2004  0.0731
    1W        W57885  15.596   0.139   2.374 -0.0233  0.1091 -0.1627
    1W        W57886  27.195   0.021   7.193  0.1202  0.1792  0.1629
    1W        W57887   9.738  29.726   9.041 -0.2409  0.0557 -0.0159
    1W        W57888  17.250   3.980   2.742 -0.0307 -0.0360  0.1922
    1W        W57889  28.040  16.064   8.485 -0.0483 -0.0045 -0.1028
    1W        W57890  14.594  24.752   7.135  0.2114 -0.2640  0.1495
    1W        W57891  19.387   4.621   1.706 -0.0975  0.1023  0.0812
    1W        W57892   5.283   8.928   0.885 -0.0999  0.0447  0.1060
    1W        W57893   0.529  19.318   9.059  0.3125 -0.0158 -0.0556
    1W        W57894  29.189  15.527   1.178 -0.0378  0.2251 -0.0860
    1W        W57895  19.056  26.818   0.904  0.2195 -0.1153 -0.1837
    1W        W57896   4.280   5.102   8.826 -0.1289  0.1103  0.4928
    1W        W57897  17.195  18.365   6.805 -0.0902  0.2771  0.0120
    1W        W57898  13.779   8.647   8.671  0.0473  0.0264  0.0159
    1W        W57899  20.447   2.802   0.722 -0.0160 -0.0518 -0.1125
    1W        W57900   2.689  19.772   0.989  0.1264 -0.0793 -0.0313
    1W        W57901   9.825  14.469   9.448 -0.0303 -0.1648  0.0378
    1W        W57902   3.768  22.173   0.472  0.0053 -0.0372  0.3283
    1W        W57903  11.641  13.351   2.407  0.2050 -0.0820  0.1828
    1W        W57904  27.060  14.855   1.861  0.0126 -0.0094 -0.0143
    1W        W57905  15.837  17.525   0.866  0.0064 -0.1580 -0.0820
    1W        W57906  21.740   1.086   0.329  0.0720 -0.0528 -0.2561
    1W        W57907  20.006   2.928   0.495  0.0142  0.1807  0.2145
    1W        W57908   7.501  26.556   6.364  0.0102  0.2584 -0.2560
    1W        W57909  15.750   4.934   3.402 -0.1499 -0.0496  0.1007
    1W        W57910   1.782  20.256   0.957  0.1247 -0.1571 -0.4893
    1W        W57911   7.297  27.719   2.281  0.0247  0.0692  0.3308
    1W        W57912   0.947  21.761   6.281 -0.2327  0.2337 -0.0423
    1W        W57913   1.891  19.269   2.574 -0.1738 -0.0578  0.0376
    1W        W57914   9.177   5.837   3.563 -0.2556  0.0700  0.4690
    1W        W57915  19.009   2.889   3.751 -0.0060 -0.4727  0.0867
    1W        W57916   5.896   2.663   7.127  0.0589 -0.2357  0.0728
    1W        W57917  15.857  10.220   8.942 -0.0314  0.3618  0.1633
    1W        W57918   0.350  10.756   8.958 -0.3448  0.0991  0.1403
    1W        W57919   2.930   4.379   6.657  0.0776 -0.2120 -0.2547
    1W        W57920   2.910  17.482   2.178 -0.4146 -0.1310  0.0671
    1W        W57921  29.683  28.170   5.992 -0.4351  0.1915  0.5058
    1W        W57922  22.018  27.746   2.271  0.4778  0.0368 -0.0820
    1W        W57923  23.189  16.454   7.762  0.1497 -0.0398 -0.1314
    1W        W57924   2.214   9.361   7.266  0.2170  0.0820  0.0627
    1W        W57925   4.487   3.536   6.484 -0.2810 -0.1765 -0.0107
    1W        W57926   1.196  24.190   7.831 -0.1298  0.2337  0.1879
    1W        W57927  28.476  10.728   7.076  0.1310  0.1840  0.2754
    1W        W57928  12.747  13.508   7.035  0.2208 -0.0035 -0.1161
    1W        W57929  11.757   6.559   3.601  0.0472 -0.0299 -0.1066
    1W        W57930  26.355   1.947   1.151  0.1654 -0.2956 -0.1240
    1W        W57931   1.996  26.651   6.486  0.3121 -0.1261  0.1356
    1W        W57932  16.131   9.031   2.649 -0.1588 -0.1284  0.0852
    1W        W57933  18.111  27.304   1.192 -0.1441  0.1700 -0.1025
    1W        W57934   5.874  27.811   9.133 -0.0177 -0.0975  0.0814
    1W        W57935  13.862   9.899   0.780  0.1011 -0.0337  0.0222
    1W        W57936  18.026  29.163   9.484  0.3122 -0.2143 -0.1581
    1W        W57937   4.311  11.635   7.294  0.1966  0.0392 -0.0326
    1W        W57938  20.837   8.419   0.445 -0.1972  0.0406 -0.3303
    1W        W57939   4.205   5.042   2.983  0.4401 -0.1665 -0.1439
    1W        W57940  14.968  19.044   1.760  0.0595 -0.3467 -0.0926
    1W        W57941  10.374   5.672   7.012  0.3470 -0.0169 -0.0356
    1W        W57942   0.472   5.709   7.984 -0.0384 -0.2336 -0.2600
    1W        W57943   2.729  14.248   8.090 -0.1644 -0.1731  0.2091
    1W        W57944   1.295   6.404   2.791 -0.1286 -0.0377  0.0474
    1W        W57945   1.548  22.889   1.676  0.0030  0.0099 -0.1184
    1W        W57946  13.010  20.407   7.454 -0.4130  0.1542  0.0588
    1W        W57947  21.955  22.705   8.308 -0.1469  0.2355 -0.1396
    1W        W57948   5.241  22.403   0.106 -0.0574  0.1284 -0.0745
    1W        W57949  25.622   3.113   2.788 -0.1052 -0.4849 -0.0973
    1W        W57950   1.908  21.362   7.063  0.0038  0.0035 -0.0609
    1W        W57951  12.202  11.272   7.093  0.0381  0.1369 -0.0517
    1W        W57952   6.264  14.643   0.176 -0.2001  0.1946 -0.1818
    1W        W57953  23.130   6.424   1.388 -0.1623 -0.0876  0.2396
    1W        W57954  19.221   5.125   2.924  0.0327  0.1719 -0.0060
    1W        W57955   8.239  10.980   1.842  0.0355 -0.0733 -0.2212
    1W        W57956  13.297   1.807   8.100 -0.0389 -0.0411 -0.1572
    1W        W57957  16.355  10.111   9.302 -0.1137  0.0791  0.0250
    1W        W57958  29.765  23.926   0.196  0.2952  0.0461  0.1110
    1W        W57959  21.787  18.446   8.706  0.1635  0.0894 -0.2569
    1W        W57960  19.758   3.177   4.230 -0.2632  0.0103  0.2073
    1W        W57961  27.730   3.432   2.861  0.1305  0.1729  0.1574
    1W        W57962   9.870  19.598   1.808  0.2787 -0.2208 -0.5341
    1W        W57963  29.545  29.362   0.364 -0.2407  0.1330  0.0160
    1W        W57964  15.712  17.506   0.261  0.1615 -0.0935  0.0396
    1W        W57965   0.608  29.051   7.389  0.0394  0.1572  0.0291
    1W        W57966   2.508  17.960   1.199  0.0197 -0.0040 -0.1575
    1W        W57967  25.315  18.655   6.335 -0.0058 -0.0400  0.2918
    1W        W57968   0.436  25.151   0.794 -0.1052  0.3646 -0.1006
    1W        W57969  14.280   6.584   8.150 -0.2249  0.0743  0.0481
    1W        W57970  18.878  10.739   2.526  0.2570  0.0044  0.2122
    1W        W57971  24.809   5.732   9.527  0.0705 -0.4299 -0.1280
    1W        W57972  21.721  16.591   1.767  0.0722  0.3045 -0.0808
    1W        W57973  13.508   5.676   3.493  0.3778  0.0227 -0.3263
    1W        W57974  20.927   3.307   8.339  0.2083 -0.0761  0.3350
    1W        W57975   7.508   4.684   8.828  0.2967 -0.0570 -0.1560
    1W        W57976  17.335  17.352   9.277 -0.0128  0.0105  0.0115
    1W        W57977   0.479   2.242   2.615 -0.3745  0.3917  0.0487
    1W        W57978   3.156  15.502   3.204  0.0526  0.5746 -0.1638
    1W        W57979   5.054  28.654   0.962 -0.0320 -0.0648 -0.0836
    1W        W57980   9.004  21.923   8.522 -0.0625 -0.1445  0.0975
    1W        W57981  26.840   3.907   9.041 -0.0206  0.1031  0.0187
    1W        W57982  17.826  25.898   8.025  0.0755  0.2577 -0.0352
    1W        W57983   9.667  20.033   0.463 -0.1695 -0.2165  0.1722
    1W        W57984  16.908   2.030   0.970 -0.0938  0.0406 -0.1873
    1W        W57985   8.809   4.843   2.978 -0.0571  0.0043  0.0215
    1W        W57986  15.952  25.442   8.725 -0.1636 -0.2013 -0.0873
    1W        W57987  28.362  13.054   8.271  0.0535 -0.2790 -0.4259
    1W        W57988  22.740   6.801   1.420 -0.0209 -0.2596  0.0620
    1W        W57989  17.741   6.362   8.075 -0.0586 -0.0859  0.2986
    1W        W57990   4.549  23.230   7.051  0.1318  0.2748 -0.2276
    1W        W57991  28.178  11.960   0.868 -0.1175 -0.1227  0.2525
    1W        W57992  26.247  24.531   8.037 -0.2919 -0.0883  0.1774
    1W        W57993   0.497  20.710   2.312  0.1579  0.0637  0.1005
    1W        W57994  13.482  14.319   6.416  0.2268 -0.0037 -0.0544
    1W        W57995   6.599  20.197   0.982  0.0712 -0.0904 -0.1392
    1W        W57996  12.291  21.177   7.803  0.2418 -0.3190  0.5312
    1W        W57997  18.385  29.377   8.527  0.1709 -0.1280  0.0748
    1W        W57998   0.696  11.910   8.829  0.0447 -0.0357  0.1157
    1W        W57999  21.372  23.809   0.427  0.0249  0.2773 -0.1114
    1W        W58000  23.804  21.000   7.117 -0.1955 -0.0736 -0.2667
    1W        W58001  14.076  16.987   1.003  0.3184  0.0250  0.0582
    1W        W58002  27.075   4.263   2.173 -0.2651  0.1164  0.0923
    1W        W58003   3.856   8.040   7.342  0.2413 -0.1217  0.0942
    1W        W58004  25.325  22.997   2.019 -0.1203  0.3615 -0.2564
    1W        W58005  14.199   7.088   9.236  0.1600 -0.2993  0.1963
    1W        W58006  23.547  27.369   7.509 -0.0483 -0.0369 -0.2385
    1W        W58007  12.664   8.890   1.961  0.2840  0.1768  0.1834
    1W        W58008  23.962  23.329   1.695 -0.2609  0.0229 -0.0433
    1W        W58009  29.353  20.269   9.389  0.1907 -0.1273 -0.2399
    1W        W58010   4.562  23.457   8.554 -0.1057  0.1239 -0.0235
    1W        W58011   5.258  12.662   5.959 -0.3268 -0.1916  0.0288
    1W        W58012  19.089   2.825   1.261 -0.1541 -0.1010 -0.0104
    1W        W58013  24.321   5.280   8.320 -0.1471  0.4181 -0.0502
    1W        W58014  21.553   6.262   2.090  0.1828  0.4571 -0.1622
    1W        W58015  21.215  10.165   7.047 -0.3074  0.0582 -0.0474
    1W        W58016  17.022  11.520   2.286 -0.0907 -0.0772  0.1318
    1W        W58017   0.083   5.532   6.798  0.3989  0.2710 -0.1389
    1W        W58018   2.597  11.320   2.919 -0.1733  0.1614  0.0262
    1W        W58019  15.046  24.989   5.273 -0.0444 -0.1079  0.1990
    1W        W58020  20.486   2.191   8.916 -0.3808  0.1714  0.1645
    1W        W58021  29.661  26.491   8.216 -0.0614 -0.0246 -0.1743
    1W        W58022  14.481   1.063   8.623 -0.0197 -0.0531  0.1616
    1W        W58023  15.475   8.420   7.938 -0.2187  0.0036  0.0635
    1W        W58024   7.138   2.490   7.732  0.2850 -0.0566  0.0674
    1W        W58025  29.066  13.126   2.720  0.0186 -0.0297 -0.0242
    1W        W58026   8.375  18.491   6.187  0.0406  0.3798  0.1963
    1W        W58027  19.838  11.700   9.269 -0.0308 -0.1350 -0.0428
    1W        W58028   7.133  17.764   8.125 -0.0202  0.3408  0.1269
    1W        W58029   1.537   1.533   8.453 -0.2421  0.0061  0.0314
    1W        W58030  14.601   7.424   2.690 -0.1673 -0.2226  0.0535
    1W        W58031  14.601  25.915   8.932  0.1139 -0.0721 -0.0300
    1W        W58032  26.524  22.147   2.288  0.1660  0.0688  0.0242
    1W        W58033  14.109   1.412   4.482 -0.0032 -0.0803  0.0820
    1W        W58034   3.515  19.803   8.408  0.0883 -0.4766  0.1810
    1W        W58035  21.759  19.244   6.288 -0.1506 -0.0419 -0.0343
    1W        W58036  22.676  21.044   1.910 -0.1911 -0.1892 -0.2023
    1W        W58037  19.037  29.737   7.799  0.0230 -0.2306 -0.0671
    1W        W58038  25.661  25.631   1.354 -0.0561  0.1516  0.0274
    1W        W58039  27.343  21.876   0.290 -0.0778  0.3051  0.0996
    1W        W58040  27.207   4.049   6.347 -0.3054  0.1785  0.2079
    1W        W58041   3.965  25.484   6.645 -0.2633 -0.0428  0.0706
    1W        W58042  15.840  13.616   1.711 -0.2023  0.2791  0.1178
    1W        W58043  21.052  17.715   0.111 -0.0869 -0.1034  0.1074
    1W        W58044  13.985  17.546   0.570  0.0194  0.0138 -0.0173
    1W        W58045  19.662  28.412   2.236 -0.0158 -0.1871  0.2792
    1W        W58046  15.765   9.856   0.886 -0.0967 -0.0825 -0.1217
    1W        W58047  20.785  26.028   1.028 -0.3327 -0.3553  0.0631
    1W        W58048   5.069   3.021   2.696  0.2189 -0.0627  0.0638
    1W        W58049   7.927  12.519   7.385 -0.2045  0.1680  0.0193
    1W        W58050  27.628  12.812   2.540  0.0201 -0.1242 -0.1440
    1W        W58051  29.217   4.582   1.951 -0.1620 -0.0063  0.0882
    1W        W58052  27.659   1.895   9.298 -0.0943  0.0057  0.2195
    1W        W58053  28.746  27.045   6.117  0.0727  0.2313  0.3277
    1W        W58054  20.902  21.568   7.654  0.1195  0.3985  0.2047
    1W        W58055  26.317   8.400   8.820 -0.1711 -0.0466  0.0158
    1W        W58056   8.925  29.228   0.181 -0.3294  0.1536 -0.0286
    1W        W58057   8.913  18.800   6.079 -0.0344  0.2408 -0.0952
    1W        W58058  17.361  29.080   3.361  0.1455 -0.3131  0.1668
    1W        W58059   1.673  10.651   1.446  0.1946  0.1048  0.0148
    1W        W58060  10.753   2.776   2.835 -0.1179 -0.0426  0.1969
    1W        W58061  12.895  21.992   5.477  0.1404  0.0553  0.1361
    1W        W58062  19.337  23.759   6.791 -0.2957 -0.3955  0.1735
    1W        W58063   3.232  27.020   7.240 -0.0361 -0.1662 -0.3739
    1W        W58064  26.165  27.236   0.134  0.0645 -0.1583 -0.1494
    1W        W58065   3.213   5.767   7.665  0.2385  0.3601  0.1625
    1W        W58066   1.549  11.155   0.028 -0.2420 -0.1717 -0.0770
    1W        W58067  23.308  29.488   9.316 -0.0223 -0.0799  0.0302
    1W        W58068  27.459  12.484   0.921  0.2393 -0.2509  0.1664
    1W        W58069  13.328  26.491   0.076 -0.2566  0.0889  0.0746
    1W        W58070  14.521  18.528   6.649 -0.0918 -0.1851  0.0616
    1W        W58071  26.728  22.400   8.064  0.1144 -0.0331  0.1955
    1W        W58072   8.433   0.193   0.940  0.1021 -0.2856 -0.2191
    1W        W58073   0.129  19.094   9.255  0.2111  0.1961 -0.1803
    1W        W58074  16.118   8.833   0.458  0.3769  0.2151 -0.1589
    1W        W58075   4.185   9.328   8.634  0.0539  0.0578  0.0373
    1W        W58076  23.975  27.770   2.980 -0.1265 -0.0672 -0.0773
    1W        W58077  23.768  27.655   8.711 -0.3731 -0.0682  0.0574
    1W        W58078  11.009  22.910   9.474  0.1109 -0.1248  0.1353
    1W        W58079   8.883   2.183   8.166  0.1481  0.0533 -0.2036
    1W        W58080  10.071  20.010   8.518  0.3418 -0.0105  0.2442
    1W        W58081  25.756  15.698   0.819 -0.2104 -0.0957  0.1061
    1W        W58082   3.402   2.409   7.954 -0.0797 -0.4176  0.1522
    1W        W58083   5.641   7.828   9.062  0.0525  0.1334 -0.0006
    1W        W58084   7.068  28.016   8.919  0.5106  0.0962 -0.2335
    1W        W58085  25.933   5.707   1.936 -0.4364 -0.1003 -0.2386
    1W        W58086   3.152  29.094   8.149 -0.0304 -0.0690  0.0964
    1W        W58087  15.572  14.592   7.607  0.0877  0.2910  0.1373
    1W        W58088   8.439  21.201   1.266 -0.2965  0.0585  0.0126
    1W        W58089  18.652  16.382   1.085 -0.3124  0.0943  0.0459
    1W        W58090  25.320   3.521   9.333  0.2997  0.0835 -0.1227
    1W        W58091  15.396  28.599   7.461 -0.2111  0.1373  0.0733
    1W        W58092  23.265  16.189   9.191 -0.1179 -0.1931  0.0558
    1W        W58093  19.239   4.322   0.012  0.1915 -0.0249 -0.2230
    1W        W58094   6.101  20.205   0.786 -0.1899 -0.0473  0.0193
    1W        W58095  27.693  13.991   7.479 -0.1234  0.0520  0.3233
    1W        W58096   0.800  21.737   9.399  0.2022 -0.0091  0.1910
    1W        W58097   5.385   8.613   8.060  0.2412  0.2296  0.0237
    1W        W58098  29.390   3.041   1.102 -0.3255 -0.1509  0.2317
    1W        W58099   7.438  15.229   7.283 -0.1165  0.0107  0.2255
    1W        W58100   0.062   5.847   1.933 -0.2086  0.1787 -0.2579
    1W        W58101   3.545  12.335   7.879 -0.4374  0.0459  0.0925
    1W        W58102   8.944   5.882   7.468  0.3508 -0.0222  0.2051
    1W        W58103  28.468  28.948   6.577  0.3397  0.4323 -0.0505
    1W        W58104  12.219  20.995   7.157  0.0082  0.1593 -0.2256
    1W        W58105  28.100   6.254   7.979  0.1301  0.2279  0.3820
    1W        W58106  21.083   0.360   7.248 -0.1564  0.0844  0.2103
    1W        W58107  12.328  13.984   0.869 -0.0699 -0.0554  0.1284
    1W        W58108  17.966   4.758   7.892  0.2282 -0.2452 -0.0476
    1W        W58109   3.287  18.704   2.646 -0.2172 -0.0351 -0.1029
    1W        W58110  16.253  25.257   6.532 -0.0756 -0.2182  0.2235
    1W        W58111  17.714  20.021   8.520 -0.1830 -0.0403  0.1113
    1W        W58112  17.208  20.228   5.713 -0.1173  0.1637  0.1064
    1W        W58113   6.811  22.833   8.821 -0.3207 -0.1455 -0.2617
    1W        W58114   6.744  25.225   9.379 -0.1444  0.2109  0.1532
    1W        W58115   0.896  13.198   1.806 -0.0553 -0.2018  0.1650
    1W        W58116  25.625  23.463   6.579  0.0108 -0.0708  0.2215
    1W        W58117  28.077  17.303   0.058 -0.1709 -0.2183 -0.0285
    1W        W58118  28.660  27.788   7.037  0.1826 -0.2745  0.0221
    1W        W58119   1.532  28.136   1.009  0.0004 -0.0749  0.0496
    1W        W58120  28.666   4.859   7.198 -0.0080  0.0364 -0.1918
    1W        W58121  19.060  10.712   8.880 -0.0258 -0.1175  0.0971
    1W        W58122   2.566   7.012   7.799 -0.0833 -0.1667  0.0370
    1W        W58123   9.054  10.484   0.279 -0.0899 -0.1461  0.1749
    1W        W58124   2.709  13.451   7.152  0.3804  0.3177 -0.0030
    1W        W58125  27.610  28.073   7.162 -0.0330 -0.0466 -0.0119
    1W        W58126   4.718  24.433   7.474  0.2407  0.0323 -0.1592
    1W        W58127   3.407   1.651   1.049  0.2809 -0.0248 -0.4446
    1W        W58128   9.377  13.622   1.894 -0.1366  0.1235 -0.2792
    1W        W58129  23.482  24.897   7.464  0.1402  0.3118  0.2348
    1W        W58130   1.042  21.245   9.406  0.3210 -0.0023  0.3102
    1W        W58131  24.914   3.203   1.509 -0.0701 -0.0795 -0.0799
    1W        W58132  12.779   5.179   0.025 -0.0955 -0.1642 -0.5028
    1W        W58133  25.338  14.690   1.217 -0.2118 -0.3536  0.1830
    1W        W58134  20.363   9.365   8.612 -0.2431  0.1930  0.0249
    1W        W58135  13.216  24.565   6.980  0.1049  0.5070  0.1753
    1W        W58136  19.186   9.805   1.438 -0.1361  0.2425 -0.1578
    1W        W58137   2.696  18.108   0.769 -0.0870  0.2128 -0.0635
    1W        W58138  10.605   7.943   0.426 -0.2386  0.2783 -0.2544
    1W        W58139   6.709  17.108   7.071 -0.1825  0.0760 -0.3557
    1W        W58140  18.620  18.877   7.124  0.0053  0.0888  0.0866
    1W        W58141  13.192  25.481   9.317 -0.0399  0.0816 -0.0782
    1W        W58142  14.549   0.888   3.652 -0.1437 -0.0652 -0.2839
    1W        W58143  16.754  19.665   7.213 -0.1996 -0.2564  0.1152
    1W        W58144   3.709   2.498   1.851 -0.2129 -0.1005 -0.0796
    1W        W58145  22.428   7.270   1.943 -0.1131  0.2149  0.0797
    1W        W58146  10.658   1.503   2.721  0.1514  0.1499  0.2546
    1W        W58147  11.623  27.979   8.465 -0.0816 -0.0906  0.0463
    1W        W58148  29.154  25.352   6.825 -0.1031 -0.3064  0.1558
    1W        W58149  22.677  11.680   9.093  0.0975 -0.0869 -0.1494
    1W        W58150  23.715   3.222   3.924 -0.3190 -0.0226  0.0747
    1W        W58151  15.667  21.544   8.812 -0.1513  0.1841  0.2188
    1W        W58152   2.655  28.292   6.409 -0.0555  0.0498  0.1489
    1W        W58153  17.742  28.126   8.118 -0.4529 -0.2458  0.1664
    1W        W58154  13.070   2.085   8.574 -0.1668 -0.0530 -0.2047
    1W        W58155  25.306  28.761   2.832 -0.0544 -0.1125  0.0535
    1W        W58156  12.797  22.774   8.259  0.3619  0.0599 -0.1062
    1W        W58157  16.013   7.859   1.856  0.2115  0.2322  0.0029
    1W        W58158  12.014  13.214   1.224 -0.0599  0.1995 -0.2271
    1W        W58159   2.763  26.174   0.258  0.2032 -0.1325 -0.0065
    1W        W58160  29.418   9.640   7.118  0.1395  0.2309  0.5443
    1W        W58161  15.671   1.263   8.907  0.1301  0.0476 -0.0664
    1W        W58162   2.064  24.494   6.467 -0.1928  0.1167 -0.0097
    1W        W58163  26.186  22.522   2.383  0.1869  0.1493  0.3404
    1W        W58164  25.412   4.064   2.715  0.0134  0.0776 -0.1508
    1W        W58165  21.924   4.968   8.619 -0.0978  0.1009 -0.1298
    1W        W58166  12.147   4.633   2.044  0.1437 -0.2054 -0.0480
    1W        W58167  12.038  25.332   0.161  0.1699  0.1839 -0.1675
    1W        W58168   6.979  16.430   8.217 -0.4678 -0.0351 -0.0325
    1W        W58169  12.751   8.593   7.583  0.0381  0.1099 -0.1244
    1W        W58170  18.989  10.174   1.003 -0.0577  0.0646  0.1293
    1W        W58171   0.408  29.532   1.804  0.2089 -0.0593  0.0287
    1W        W58172   3.020  10.167   1.009 -0.1549  0.0994 -0.0053
    1W        W58173  17.457   4.488   3.594 -0.0847  0.2513  0.1480
    1W        W58174   6.152   7.094   8.271  0.0607  0.1494 -0.2016
    1W        W58175  22.970  28.888   3.495 -0.0802  0.3876 -0.1872
    1W        W58176  22.832  10.553   1.108  0.3470  0.0678  0.0284
    1W        W58177  16.766  12.052   0.825  0.0149 -0.1849 -0.2525
    1W        W58178  14.893  17.170   1.229 -0.2330  0.3129  0.0214
    1W        W58179  20.216  14.124   7.902  0.2611  0.2137 -0.0040
    1W        W58180  29.414   9.631   0.054  0.0882 -0.1988 -0.0684
    1W        W58181  12.571   7.824   3.479  0.0440 -0.1389 -0.3249
    1W        W58182  19.776  11.224   9.301  0.0897  0.0949 -0.1535
    1W        W58183  27.194  16.783   0.813 -0.3428  0.2269 -0.1525
    1W        W58184  12.961  19.659   1.503  0.0360 -0.3315 -0.1619
    1W        W58185  11.723  23.524   5.933  0.2266  0.0194  0.0415
    1W        W58186  21.475  22.119   7.043 -0.0471 -0.2068 -0.1595
    1W        W58187  11.477   7.068   3.281  0.2027  0.0694  0.0432
    1W        W58188   6.481  23.616   0.382 -0.3329  0.1867 -0.0390
    1W        W58189  10.633  27.482   6.986  0.1093 -0.1090  0.0679
    1W        W58190  28.420  12.327   7.483  0.1240 -0.4388 -0.2497
    1W        W58191   5.754   4.110   8.906  0.2306  0.2449  0.1440
    1W        W58192  28.993  22.784   6.460 -0.1930  0.0741  0.1675
    1W        W58193  19.132  16.932   2.201  0.3338  0.1600  0.0733
    1W        W58194   4.003  21.540   1.707  0.0647  0.0958  0.1423
    1W        W58195   7.331  17.217   9.431  0.0463 -0.0169  0.2081
    1W        W58196   7.399  19.553   0.853 -0.1196 -0.1791  0.0278
    1W        W58197  18.816  22.475   9.460  0.0080 -0.1201  0.0251
    1W        W58198  14.588  15.183   6.928  0.0112 -0.1126 -0.0648
    1W        W58199  15.443   3.034   1.795  0.0477 -0.3616 -0.0161
    1W        W58200  24.541  21.317   2.530 -0.2815  0.2218  0.2816
    1W        W58201  28.415   6.559   8.169 -0.0354  0.0907  0.1765
    1W        W58202  22.585  15.228   7.198 -0.1147 -0.2311 -0.1872
    1W        W58203   2.468   9.341   9.061 -0.0010 -0.1429 -0.1842
    1W        W58204  12.116   5.742   8.418 -0.1015 -0.2358 -0.0004
    1W        W58205  20.191  10.445   7.998 -0.0836  0.2099  0.0098
    1W        W58206   3.463   6.571   8.186 -0.2121  0.1187 -0.2211
    1W        W58207  15.020  26.333   8.130  0.0143  0.0859 -0.3735
    1W        W58208  17.541   2.280   9.175  0.1237  0.2757  0.0659
    1W        W58209   4.474  21.879   9.197  0.0363 -0.1148  0.3046
    1W        W58210  26.648  26.802   8.576 -0.2342  0.3444  0.0566
    1W        W58211   9.138  14.659   6.538  0.0850 -0.3788  0.1297
    1W        W58212  10.322  20.820   6.325 -0.2205 -0.2601 -0.0122
    1W        W58213  19.553  12.138   0.823  0.0657  0.1524  0.2927
    1W        W58214   6.903   5.796   1.985  0.1292 -0.1604 -0.1814
    1W        W58215   9.726  20.378   7.533 -0.0096 -0.0149 -0.1292
    1W        W58216  27.189   5.021   2.513 -0.0145  0.2276  0.1559
    1W        W58217   1.918  11.711   7.302 -0.0415  0.2727  0.0803
    1W        W58218  15.909  17.662   6.103 -0.0260  0.0534 -0.0460
    1W        W58219  12.106  17.739   1.064 -0.1191 -0.1351 -0.1075
    1W        W58220  13.064  23.100   7.794  0.0099  0.0757 -0.6473
    1W        W58221  21.204  26.038   9.101 -0.2059  0.0596  0.2059
    1W        W58222  18.442  13.837   1.519  0.0129  0.2206  0.0116
    1W        W58223   2.417  22.782   1.630  0.2104  0.0417 -0.0667
    1W        W58224   9.979  10.887   9.508  0.0208  0.0486 -0.1231
    1W        W58225   9.916  22.821   6.998  0.1045  0.0129 -0.0585
    1W        W58226  22.806   9.368   2.971 -0.2606  0.1649  0.3655
    1W        W58227   7.773   3.167   0.770 -0.0376  0.2378 -0.2208
    1W        W58228   7.850  22.426   7.357  0.2355  0.1275 -0.0792
    1W        W58229  11.642  28.175   2.983 -0.1039  0.1686  0.0727
    1W        W58230   7.930   9.468   8.472 -0.0382  0.4113 -0.0329
    1W        W58231   4.137  26.381   8.129  0.2046  0.0136  0.0343
    1W        W58232   1.616   5.736   2.078  0.1231  0.0065 -0.0170
    1W        W58233   0.702   4.395   3.047 -0.2087  0.0741  0.3178
    1W        W58234   8.438   3.364   8.664 -0.0690  0.2613 -0.0254
    1W        W58235  16.588  19.434   7.986  0.1247 -0.1874  0.1479
    1W        W58236  17.617  16.083   7.281  0.0239 -0.0970  0.3343
    1W        W58237  28.956  28.937   8.681 -0.0203  0.0582 -0.0254
    1W        W58238  19.966  11.367   1.974  0.2028  0.2328 -0.4510
    1W        W58239  16.941   3.036   2.159 -0.1286  0.2006 -0.1177
    1W        W58240  26.388  15.594   1.003 -0.0267  0.0673 -0.0763
    1W        W58241  15.252   4.563   1.267  0.0550  0.0579 -0.0493
    1W        W58242  27.219  28.400   6.309  0.0475  0.3012  0.1037
    1W        W58243  16.857   4.302   2.893  0.0080 -0.0537 -0.2123
    1W        W58244   2.920   8.229   1.605  0.1573  0.3097  0.0664
    1W        W58245  26.554   5.000   0.169  0.1269  0.0618 -0.2185
    1W        W58246  16.825  12.249   9.049 -0.2590 -0.0602 -0.0853
    1W        W58247   0.616   0.606   2.008 -0.3860 -0.0461 -0.3243
    1W        W58248  26.207   2.310   1.883  0.2344 -0.3304 -0.0046
    1W        W58249  14.225  22.609   1.261  0.1759  0.1947 -0.1399
    1W        W58250  28.155  29.599   8.574  0.2036  0.1828 -0.1338
    1W        W58251  23.416  19.425   6.013 -0.1610  0.3749  0.1428
    1W        W58252  11.085  25.057   1.458  0.2980  0.2575  0.3256
    1W        W58253   7.042   5.133   1.335  0.0967  0.2106  0.0819
    1W        W58254   4.477   5.458   8.468 -0.2087  0.0286 -0.0837
    1W        W58255   9.937  17.586   7.788 -0.2023  0.0236  0.2227
    1W        W58256  27.702  22.668   9.139  0.0852  0.0691 -0.0404
    1W        W58257  25.320  12.819   1.936 -0.0226 -0.2711 -0.2154
    1W        W58258  21.116  26.607   8.865  0.0661  0.0284  0.1514
    1W        W58259   3.113  29.069   6.467 -0.3326 -0.1996 -0.0184
    1W        W58260   0.581  20.990   9.294  0.1219  0.0999 -0.3388
    1W        W58261  24.096   3.527   2.344  0.2122  0.0043  0.0385
    1W        W58262  15.505  10.321   0.922 -0.3257  0.3123 -0.0153
    1W        W58263   7.899   6.548   2.084  0.3274 -0.0693  0.0049
    1W        W58264   4.640   7.053   7.221  0.0343 -0.1818  0.1180
    1W        W58265  17.265   2.993   1.181 -0.0825  0.1167  0.0416
    1W        W58266  16.015  27.596   6.966  0.1417 -0.1712 -0.2556
    1W        W58267  12.711   0.148   1.055 -0.1453  0.0469 -0.1211
    1W        W58268   4.232  10.878   2.584  0.1707  0.1794  0.0786
    1W        W58269   5.857   1.853   2.319 -0.2141  0.0029 -0.1121
    1W        W58270  29.787  10.967   6.842  0.2902  0.1903 -0.0441
    1W        W58271   7.478   1.271   1.555  0.1221 -0.0688 -0.3115
    1W        W58272   3.146  17.977   1.275  0.0062  0.1671 -0.1624
    1W        W58273   6.008  29.530   7.630  0.0219 -0.0228 -0.1999
    1W        W58274  21.424  17.022   8.023 -0.1097  0.2515  0.2380
    1W        W58275   4.305   3.137   9.452 -0.2231 -0.0742 -0.1785
    1W        W58276  25.227  12.364   7.292 -0.3968 -0.1721 -0.2756
    1W        W58277   0.612  16.556   1.051  0.0243 -0.1905 -0.0754
    1W        W58278  26.871  27.964   1.257 -0.0729 -0.0884 -0.0039
    1W        W58279  25.872   1.063   0.325 -0.1198 -0.1578  0.1671
    1W        W58280  10.555   8.285   1.754 -0.1041 -0.1075 -0.2363
    1W        W58281  13.409   4.232   3.392  0.1650  0.0156  0.2077
    1W        W58282  12.778   2.011   8.179 -0.1408  0.0170  0.2477
    1W        W58283  13.613  25.695   0.075  0.2267 -0.2037 -0.1311
    1W        W58284  17.527  10.615   1.607 -0.3162 -0.0794 -0.0803
    1W        W58285  23.645   3.532   7.568  0.2597  0.0162  0.0084
    1W        W58286  18.085  19.886   5.765 -0.1068  0.2803 -0.3615
    1W        W58287   1.409  21.206   8.254  0.3252 -0.4421  0.1350
    1W        W58288   3.187  17.980   0.758  0.2767 -0.1295  0.1942
    1W        W58289   9.428  28.271   1.787 -0.0867  0.3328  0.0674
    1W        W58290  17.184   0.537   2.994 -0.0452  0.2354  0.0900
    1W        W58291  25.163  11.513   1.726 -0.0828  0.2196 -0.0025
    1W        W58292  19.224  13.021   7.222 -0.1471 -0.0503 -0.2959
    1W        W58293  26.819  26.241   6.808  0.0325  0.1346  0.1889
    1W        W58294  12.336  29.837   1.840 -0.2135 -0.1585  0.1891
    1W        W58295   6.352   3.426   7.590 -0.3314 -0.2095 -0.0324
    1W        W58296  17.785  16.958   7.054 -0.0256  0.2241 -0.1604
    1W        W58297  10.556  14.350   8.368  0.1105 -0.1464 -0.1607
    1W        W58298  19.804   3.468   7.919  0.0131 -0.1058 -0.0570
    1W        W58299   7.775   9.062   1.701  0.1379 -0.0362 -0.0806
    1W        W58300  14.144  27.970   0.186  0.0497  0.1727  0.3641
    1W        W58301   2.156  16.380   8.612  0.3713  0.0712 -0.0197
    1W        W58302  22.904  11.037   1.067  0.0786 -0.0430 -0.1129
    1W        W58303   1.258  10.557   8.962 -0.1544 -0.1251  0.1683
    1W        W58304  10.625  11.904   0.590 -0.0998 -0.0459 -0.0590
    1W        W58305  15.700  25.399   1.765  0.1678 -0.0314 -0.1937
    1W        W58306  18.443   6.350   8.694 -0.1554  0.0820 -0.1076
    1W        W58307   2.434  13.268   8.999  0.0322 -0.3125 -0.0146
    1W        W58308  22.659   1.217   8.755  0.0543  0.3726 -0.0862
    1W        W58309  14.252  28.484   0.250  0.1331  0.2063 -0.1327
    1W        W58310   0.974  11.510   2.687 -0.1865 -0.1320 -0.0309
    1W        W58311  26.464  13.640   0.050 -0.1977 -0.1608  0.1102
    1W        W58312   0.175  17.677   8.486  0.0515 -0.1806 -0.2627
    1W        W58313  22.592  16.661   0.866  0.2337 -0.0623 -0.0947
    1W        W58314   5.205   2.844   0.195  0.0494 -0.0796  0.3094
    1W        W58315   3.622  22.144   0.004  0.1018  0.2220  0.1071
    1W        W58316  27.214  26.335   8.187  0.1281  0.1682 -0.0549
    1W        W58317  22.457   5.680   1.569 -0.1646 -0.1356  0.0277
    1W        W58318  25.495  24.525   7.942 -0.1225 -0.1476 -0.0376
    1W        W58319  25.719  19.620   9.443 -0.1190 -0.0380 -0.1874
    1W        W58320  25.775  20.122   9.229 -0.0331  0.0272 -0.0929
    1W        W58321   6.920  19.181   1.586 -0.1637  0.1880 -0.1884
    1W        W58322  21.209   0.564   8.538 -0.2855 -0.4447 -0.1244
    1W        W58323   6.682  12.842   6.200  0.0078 -0.0315 -0.0324
    1W        W58324  10.933   1.253   1.266 -0.2108  0.1072 -0.2311
    1W        W58325  26.680  16.795   0.085 -0.0846 -0.0666 -0.0877
    1W        W58326  15.017  18.831   0.298  0.1049 -0.2537  0.4592
    1W        W58327  25.645   2.849   0.629  0.0077 -0.0123  0.1351
    1W        W58328  17.797  24.189   6.670 -0.0365 -0.0194 -0.0883
    1W        W58329  14.481  20.383   0.531  0.1428 -0.3089  0.3940
    1W        W58330   7.067   2.249   8.135 -0.1099 -0.0720 -0.1625
    1W        W58331   9.743  29.481   0.031 -0.2400 -0.0038  0.2138
    1W        W58332  15.616  18.626   9.179  0.0271 -0.1247  0.2303
    1W        W58333  29.041  14.224   1.092  0.0888 -0.1343  0.1017
    1W        W58334   5.638  28.840   6.999  0.1213  0.2992  0.0084
    1W        W58335   9.295  25.529   9.295 -0.0392 -0.0552  0.3585
    1W        W58336   7.874  28.615   6.724  0.2940  0.2850 -0.0550
    1W        W58337  13.093   7.032   1.335  0.1108  0.2585  0.2827
    1W        W58338   4.125  14.229   9.273 -0.0659 -0.1248 -0.4450
    1W        W58339   3.864  26.140   5.455  0.1341  0.0646 -0.0291
    1W        W58340  16.015   7.649   0.062  0.0098  0.0076  0.1250
    1W        W58341  29.144  27.886   7.221  0.0376  0.0546 -0.1067
    1W        W58342  19.465   6.489   0.655 -0.1569 -0.0771  0.1681
    1W        W58343  19.608  17.193   6.476 -0.1582 -0.0493  0.1926
    1W        W58344   7.138   8.125   7.916  0.0096  0.1393  0.0735
    1W        W58345  27.773  22.546   2.077 -0.1435  0.0546  0.1465
    1W        W58346  24.584   2.893   1.763 -0.0736 -0.0035  0.2003
    1W        W58347  14.031  16.668   6.891  0.3085 -0.0588  0.0769
    1W        W58348  17.071  17.754   9.404 -0.3128  0.0965  0.0044
    1W        W58349   3.184  11.105   0.296  0.0201  0.1738 -0.3842
    1W        W58350  16.833  14.429   0.922  0.1325  0.4857 -0.1926
    1W        W58351  20.000   2.834   9.149 -0.1729  0.1832  0.2583
    1W        W58352  21.744  13.834   7.092 -0.1852  0.3050  0.0193
    1W        W58353  25.391  21.106   0.782  0.1535  0.3680 -0.0048
    1W        W58354  12.587  18.988   7.363  0.0130  0.2225 -0.0858
    1W        W58355   4.729  19.371   0.611  0.0650  0.0644  0.0755
    1W        W58356   5.853  14.847   0.029  0.0258 -0.0095 -0.0284
    1W        W58357  19.183  12.293   7.938 -0.0962  0.1269  0.1263
    1W        W58358   5.696   6.698   7.102  0.0023 -0.4124 -0.2568
    1W        W58359  12.495  15.577   9.025 -0.4589 -0.1825 -0.1906
    1W        W58360   8.106  21.441   7.770  0.0321  0.1200 -0.2310
    1W        W58361   5.854  23.229   8.875  0.0320  0.2981 -0.1141
    1W        W58362  19.442   1.577   3.870  0.0966  0.1833  0.0069
    1W        W58363   4.098  10.983   0.178 -0.1364  0.3054 -0.1341
    1W        W58364  24.536  21.677   0.838 -0.0387 -0.1879  0.1175
    1W        W58365  22.417  24.588   6.508  0.1301  0.1819 -0.5351
    1W        W58366  20.127  17.177   9.211  0.0540  0.1121  0.1291
    1W        W58367  11.404  17.937   6.276  0.2394 -0.3371 -0.0204
    1W        W58368  16.423  13.488   1.081  0.0298 -0.3418  0.3246
    1W        W58369  25.131   0.432   2.444 -0.2909  0.2175 -0.0708
    1W        W58370   2.662  23.428   8.051 -0.1382  0.3648 -0.2626
    1W        W58371   6.707  10.810   1.244  0.0004  0.0380 -0.2250
    1W        W58372  27.367  10.284   8.615  0.3760  0.1474 -0.1846
    1W        W58373   3.637  22.993   2.567 -0.2667 -0.0170  0.2069
    1W        W58374   5.331  22.980   0.713  0.1391 -0.1604  0.1804
    1W        W58375  16.429  17.553   1.667  0.1580  0.0875 -0.4027
    1W        W58376  16.916  19.847   5.756  0.2018 -0.4665 -0.3954
    1W        W58377  16.711  15.012   8.734 -0.0894  0.1962 -0.2059
    1W        W58378   8.239   5.209   7.284  0.0439  0.2544 -0.2921
    1W        W58379   1.680  10.283   0.787 -0.0270  0.2548 -0.0120
    1W        W58380  10.525   4.331   3.015  0.1283 -0.3205  0.0642
    1W        W58381  14.811   2.462   8.961  0.2343 -0.1559  0.0260
    1W        W58382  18.374  26.535   0.425  0.1741  0.1845 -0.0205
    1W        W58383   4.826  29.095   6.853  0.3588  0.2042 -0.3131
    1W        W58384  24.367  22.829   1.859 -0.0590 -0.2204 -0.0118
    1W        W58385  13.863  21.512   8.930  0.0174 -0.0983 -0.0873
    1W        W58386  26.558  23.642   7.828 -0.0707 -0.0110  0.2562
    1W        W58387   8.809   9.699   7.961  0.3903  0.5129  0.1289
    1W        W58388  19.898  11.107   7.956  0.0717  0.1523 -0.0664
    1W        W58389  20.610   5.503   0.295  0.1971 -0.2231 -0.1101
    1W        W58390  20.745  21.376   1.367  0.0091  0.2077  0.0907
    1W        W58391  13.498  28.090   1.355 -0.3868  0.0182 -0.2881
    1W        W58392  29.351  22.545   2.230 -0.4230 -0.2232  0.0833
    1W        W58393  13.218  25.762   1.348  0.1027 -0.1859 -0.0631
    1W        W58394   7.471   3.741   8.812 -0.0813  0.4918 -0.0174
    1W        W58395  17.417  16.867   8.327 -0.2060  0.0148 -0.1479
    1W        W58396  27.682  15.451   7.842 -0.1075  0.0609  0.0571
    1W        W58397  21.785  13.423   0.015 -0.0468  0.0066  0.1378
    1W        W58398   5.320  18.822   7.709  0.2859  0.1867  0.3326
    1W        W58399  24.287   9.456   1.498  0.0354 -0.2341 -0.0603
    1W        W58400   9.139  12.576   2.032 -0.0486 -0.0095  0.2145
    1W        W58401  27.032  12.209   8.790  0.1420  0.1624 -0.2238
    1W        W58402  11.024  16.892   2.278  0.3894 -0.0479 -0.0674
    1W        W58403  13.339  27.396   0.397  0.0215  0.0681 -0.0355
    1W        W58404   4.141   1.811   9.462 -0.1862 -0.1083  0.1487
    1W        W58405  10.632  28.632   8.226 -0.0085  0.1932  0.2581
    1W        W58406  20.491   5.209   3.414  0.2087  0.3243 -0.1539
    1W        W58407   7.170  27.275   0.054 -0.0475 -0.0274 -0.2366
    1W        W58408   8.408   1.043   2.223 -0.0184  0.0058  0.0165
    1W        W58409  25.115  15.846   2.246 -0.0211 -0.4102  0.1681
    1W        W58410  20.719   6.228   1.756  0.3316 -0.0953  0.0267
    1W        W58411  18.171  16.026   7.909  0.0409  0.1370 -0.1314
    1W        W58412   1.855   3.877   0.181  0.2364  0.1320 -0.0556
    1W        W58413  12.917  16.268   0.501  0.1891 -0.2221 -0.1734
    1W        W58414   1.395   9.021   8.416  0.2174  0.2100  0.1074
    1W        W58415  16.926   6.915   0.403 -0.3887  0.0745 -0.0989
    1W        W58416   9.272   2.459   9.312 -0.0846 -0.2331 -0.0357
    1W        W58417  27.962  23.631   2.143  0.1282 -0.1290  0.1319
    1W        W58418  11.548   2.818   8.364 -0.0085 -0.0356  0.2398
    1W        W58419   7.521   8.061   7.517  0.2446 -0.0069  0.0368
    1W        W58420   9.624  16.626   8.524  0.0213 -0.1348 -0.2681
    1W        W58421  13.709   3.120   1.951  0.0497 -0.0394 -0.2604
    1W        W58422   4.290   8.040   8.838  0.1246  0.1557 -0.1638
    1W        W58423   6.366  16.534   1.881 -0.1636  0.2847  0.2848
    1W        W58424  11.898  11.812   2.141  0.0627 -0.1243  0.0890
    1W        W58425  22.143  23.923   0.848  0.5072 -0.4453  0.1190
    1W        W58426   6.449   2.052   1.943 -0.2006 -0.1054 -0.2110
    1W        W58427   1.121  16.483   1.279  0.0850 -0.1120 -0.0714
    1W        W58428  24.346  12.474   7.415 -0.0238 -0.2195  0.0078
    1W        W58429   2.412   6.213   8.246  0.1805  0.2261 -0.0916
    1W        W58430  23.783  13.444   1.184 -0.5643 -0.0519 -0.0891
    1W        W58431   3.064  20.263   7.376 -0.0371 -0.0829 -0.1980
    1W        W58432  11.406  13.253   7.280  0.4428 -0.0581  0.3242
    1W        W58433  18.621  14.528   9.394  0.1258 -0.1098 -0.1427
    1W        W58434   4.022  21.800   1.145 -0.5170  0.0920 -0.1237
    1W        W58435   8.401  15.590   1.041  0.2408  0.0951  0.4288
    1W        W58436  17.651  17.101   2.741  0.1839  0.0659 -0.0794
    1W        W58437  22.684  13.198   6.520 -0.0898 -0.0392  0.2607
    1W        W58438  28.522   7.232   6.890 -0.0063 -0.0251 -0.0126
    1W        W58439  26.263  27.793   2.017  0.2224 -0.0236 -0.0349
    1W        W58440   7.468  18.265   8.045 -0.4395  0.0400  0.1088
    1W        W58441  14.911  24.475   1.985 -0.1875  0.1072 -0.1859
    1W        W58442  14.428   8.120   3.010  0.1196 -0.1177  0.0541
    1W        W58443  29.692   4.940   2.227  0.2055  0.1814 -0.2347
    1W        W58444   1.002   2.288   2.833 -0.2832  0.2247 -0.0525
    1W        W58445  13.035  10.691   0.602 -0.2867 -0.0958  0.2431
    1W        W58446  29.784  24.921   9.451 -0.1578 -0.4079  0.0060
    1W        W58447   9.440  17.862   0.193 -0.2019 -0.0944 -0.2467
    1W        W58448  15.938  29.821   2.763 -0.1526 -0.1794 -0.2672
    1W        W58449   3.720  16.409   3.390 -0.1474  0.2389 -0.0661
    1W        W58450   2.178  21.486   6.677  0.0864  0.0256 -0.0371
    1W        W58451  28.810  13.639   0.414 -0.1800 -0.1928  0.2480
    1W        W58452  12.656  23.294   1.596  0.2860  0.0756  0.5093
    1W        W58453   1.897   6.458   0.498  0.0155 -0.0234 -0.0663
    1W        W58454   7.424  20.769   6.923  0.0904  0.2343  0.2621
    1W        W58455  20.556   6.593   7.686  0.0234  0.0656 -0.0636
    1W        W58456  15.285  19.498   6.845 -0.0552  0.3252  0.0048
    1W        W58457   5.191   1.628   0.421  0.0775  0.0809  0.2061
    1W        W58458  28.707  26.382   8.760  0.0397 -0.1582 -0.0011
    1W        W58459  26.849  26.401   7.837  0.1496 -0.0393  0.1056
    1W        W58460  11.770   7.061   7.559  0.2308 -0.2189  0.3909
    1W        W58461  25.452   1.656   8.219 -0.1460 -0.0304 -0.1323
    1W        W58462  24.256  14.095   8.453 -0.0930 -0.1009  0.1199
    1W        W58463  21.700  15.463   0.163  0.0486  0.0858  0.1481
    1W        W58464  27.468  20.990   2.220  0.2888  0.3119  0.1495
    1W        W58465  26.935  21.296   8.876  0.0671 -0.1038  0.1568
    1W        W58466  24.658  14.469   2.422  0.1854 -0.1091 -0.1029
    1W        W58467  17.133   6.988   8.432  0.1954 -0.0187 -0.0337
    1W        W58468  18.913  18.938   6.312  0.1901 -0.3085  0.1863
    1W        W58469  19.889   8.729   7.564  0.0193 -0.2693  0.1355
    1W        W58470  10.625   8.467   7.382  0.3395  0.0124  0.1894
    1W        W58471   1.253   7.590   0.286 -0.3100 -0.1351 -0.1417
    1W        W58472  26.204  13.877   7.277  0.0890 -0.0969 -0.7278
    1W        W58473  21.595  12.915   1.787 -0.0945  0.2242  0.0101
    1W        W58474  25.188  28.738   7.872  0.2825 -0.0574 -0.2287
    1W        W58475  14.222  10.978   7.196 -0.0438 -0.0021 -0.1569
    1W        W58476   6.159  11.460   0.603  0.0546  0.0670  0.1764
    1W        W58477   3.661  17.532   7.842  0.0645 -0.0549  0.0718
    1W        W58478  21.462  13.210   8.710 -0.0844  0.5143 -0.0628
    1W        W58479   6.292   9.941   1.254  0.0239  0.0110 -0.1241
    1W        W58480  29.214  24.205   0.346  0.1300 -0.1880 -0.0350
    1W        W58481   5.863  25.656   1.813 -0.2884  0.0157  0.0989
    1W        W58482  18.626   0.573   2.547 -0.2386 -0.0245  0.0833
    1W        W58483   1.161  21.880   9.087  0.0089 -0.0622  0.1382
    1W        W58484  14.884   1.955   8.182 -0.1966 -0.2690 -0.0416
    1W        W58485   7.382  28.157   1.132 -0.0366 -0.2265  0.1954
    1W        W58486  12.082   9.780   8.708 -0.0960 -0.2628 -0.0808
    1W        W58487  12.032   6.250   3.906 -0.3688 -0.3835 -0.0598
    1W        W58488  14.002   5.011   8.035 -0.0345 -0.0368  0.1304
    1W        W58489   4.018   5.068   1.223  0.0289 -0.0051 -0.0044
    1W        W58490  14.798  24.382   1.517  0.2459  0.0147  0.1538
    1W        W58491  26.844  25.164   9.088  0.0925 -0.2536 -0.1845
    1W        W58492  24.681  18.351   1.859  0.4421  0.2314 -0.0551
    1W        W58493  26.925  16.211   2.075  0.0798  0.1437  0.0861
    1W        W58494  25.115  11.454   7.998  0.2793 -0.1903 -0.1038
    1W        W58495   8.713  18.132   0.590  0.2751 -0.1817  0.1522
    1W        W58496  25.150  14.160   8.672 -0.2672 -0.2488 -0.0366
    1W        W58497  12.965  20.381   7.991 -0.1303 -0.0958 -0.3410
    1W        W58498  27.034   5.134   0.934  0.0614  0.0877 -0.1877
    1W        W58499  20.628   1.943   2.012 -0.2286 -0.1287 -0.1131
    1W        W58500   7.696   8.954   7.369 -0.1854 -0.5033 -0.0772
    1W        W58501   9.080  11.397   8.980 -0.1039  0.0660  0.0593
    1W        W58502   2.922  15.032   8.499 -0.2745  0.0933 -0.0799
    1W        W58503   1.376  22.734   1.244  0.2194  0.1172  0.1619
    1W        W58504  13.328   9.140   7.805  0.0263  0.2271  0.0643
    1W        W58505   6.399   0.996   1.621  0.0674  0.1096  0.1355
    1W        W58506  28.521  12.000   2.066 -0.1127 -0.1500 -0.2975
    1W        W58507  13.371  19.627   1.288 -0.0262 -0.1420  0.2485
    1W        W58508   8.516   0.847   0.347  0.0875  0.1513 -0.0369
    1W        W58509  16.009  11.927   7.711  0.1374 -0.1484  0.3215
    1W        W58510   9.930   7.005   0.985 -0.0338  0.0840 -0.1279
    1W        W58511   2.937  19.242   1.973  0.3547  0.0181  0.0084
    1W        W58512  10.122  25.434   1.552  0.0222 -0.1711  0.0662
    1W        W58513   5.220  16.481   9.039 -0.1987  0.1325 -0.1023
    1W        W58514   6.738   9.013   8.348  0.1341  0.2414 -0.2679
    1W        W58515  11.645  15.831   9.231 -0.1014  0.2742 -0.0462
    1W        W58516  15.695  19.205   7.856  0.0342  0.1425 -0.0179
    1W        W58517   5.923  23.332   5.981  0.2787  0.2608  0.2991
    1W        W58518   4.073   3.543   6.851 -0.1358  0.0138  0.0745
    1W        W58519  23.810   2.425   0.180  0.0891  0.3319 -0.0706
    1W        W58520   3.017  19.762   2.060 -0.0823  0.3104  0.1275
    1W        W58521   5.418  15.054   7.783 -0.2819  0.1827 -0.1444
    1W        W58522  29.609  18.619   7.052 -0.0515 -0.2790 -0.0757
    1W        W58523   7.038   8.250   7.414  0.0504 -0.0670 -0.0641
    1W        W58524   6.496  25.464   8.916 -0.0952 -0.0543 -0.3818
    1W        W58525  20.012  15.549   2.218  0.0051 -0.1019  0.0041
    1W        W58526  18.354  24.654   6.356  0.0902 -0.0138  0.0871
    1W        W58527  22.567  14.464   8.445 -0.2602  0.2037  0.1792
    1W        W58528  28.369   2.308   5.985 -0.4255  0.3960 -0.1625
    1W        W58529  22.297   3.986   3.465  0.1838  0.0428 -0.2508
    1W        W58530   2.930  13.834   8.391 -0.1059 -0.3839 -0.1507
    1W        W58531   4.852   7.628   8.744 -0.0505 -0.3707 -0.0496
    1W        W58532   0.031   8.892   7.693 -0.0211  0.1822  0.0350
    1W        W58533  21.356   3.302   9.299  0.2433  0.3422 -0.0538
    1W        W58534  25.394   7.074   1.058  0.0364 -0.1708 -0.0215
    1W        W58535  19.832   7.785   3.074  0.0342 -0.1407 -0.0575
    1W        W58536   0.791  28.186   5.691  0.4489  0.1338 -0.1460
    1W        W58537   6.205  20.153   6.483 -0.2030 -0.1477  0.2226
    1W        W58538  25.943   3.207   1.481 -0.0099  0.2663 -0.0256
    1W        W58539  23.286  11.319   7.722 -0.0251  0.2494 -0.0323
    1W        W58540  10.711   3.405   3.498 -0.1869  0.2399  0.1475
    1W        W58541  25.786  11.632   1.693 -0.0189  0.2036 -0.1090
    1W        W58542  25.126  27.774   7.418 -0.1790  0.1332 -0.2621
    1W        W58543   8.726  27.476   1.710 -0.0069  0.1223 -0.3864
    1W        W58544  16.902  21.271   0.674 -0.1735 -0.2993  0.0870
    1W        W58545   1.121  26.094   8.557 -0.0628 -0.1675  0.2784
    1W        W58546   3.402   6.531   1.935  0.0187 -0.2535  0.2048
    1W        W58547  27.695  28.101   2.412  0.1260 -0.2043 -0.3307
    1W        W58548   0.275   0.080   7.362 -0.2778 -0.2872  0.0472
    1W        W58549  25.732  11.179   8.698 -0.1109 -0.1104  0.3463
    1W        W58550   2.623   8.593   1.424  0.1590 -0.1727 -0.0339
    1W        W58551   8.204  20.430   7.811  0.0246  0.0497 -0.3208
    1W        W58552   2.736  15.415   2.385  0.1303  0.2913 -0.1147
    1W        W58553  29.377   8.992   7.860  0.0393 -0.0136 -0.2086
    1W        W58554  11.301   3.643   9.049 -0.0160  0.1861 -0.2469
    1W        W58555   0.310  29.063   7.852  0.0342 -0.0547 -0.4445
    1W        W58556  22.988  18.185   8.616  0.0205 -0.2230  0.2480
    1W        W58557  23.649  11.171   2.262 -0.1703 -0.3416  0.2568
    1W        W58558  10.666  20.294   9.070  0.0925 -0.0462 -0.2513
    1W        W58559  26.834   3.088   6.867 -0.0757  0.2079  0.0546
    1W        W58560   8.726  22.428   7.815 -0.2187 -0.1109  0.0196
    1W        W58561  12.339  15.483   1.010  0.0991  0.2935  0.3764
    1W        W58562  25.145  27.972   0.885  0.1042  0.3213  0.0410
    1W        W58563  21.433   8.553   0.707 -0.3309  0.1430  0.0753
    1W        W58564   8.223  21.903   1.732  0.0992 -0.3813  0.0046
    1W        W58565  15.322   9.753   8.592 -0.0314 -0.2356 -0.0327
    1W        W58566  19.698  22.175   9.392 -0.2134  0.0719 -0.1204
    1W        W58567  15.221  16.781   1.700 -0.2058 -0.1229 -0.0955
    1W        W58568   9.036   2.788   3.014  0.0328  0.0647 -0.0276
    1W        W58569  27.372  10.222   7.323  0.3301  0.0041 -0.2449
    1W        W58570  17.612  29.075   7.782 -0.0377 -0.0316  0.3680
    1W        W58571  23.226  27.406   1.604 -0.0026  0.1210  0.4906
    1W        W58572   7.178   6.832   0.906  0.2771 -0.2047  0.0150
    1W        W58573   6.327  28.564   1.438  0.0758  0.2495 -0.1341
    1W        W58574   9.328  20.549   7.232 -0.0626 -0.1254  0.1108
    1W        W58575  29.673  10.648   0.745 -0.3584 -0.1396 -0.0810
    1W        W58576  24.742   2.530   7.754 -0.0782  0.0629 -0.0811
    1W        W58577  14.222  16.522   7.672  0.2901 -0.3526  0.1570
    1W        W58578  14.056  11.779   9.332  0.0427 -0.0640 -0.2119
    1W        W58579  15.433  14.494   1.403  0.0875 -0.0743 -0.2407
    1W        W58580  25.509  20.009   2.826  0.0868 -0.2240 -0.2360
    1W        W58581  12.377   6.579   1.948  0.0898  0.0267 -0.0843
    1W        W58582   1.853   9.465   9.129  0.2944  0.0630  0.0430
    1W        W58583  11.884  15.374   2.153  0.1075 -0.1825  0.0768
    1W        W58584  14.715   8.441   2.368 -0.0950 -0.1410 -0.0994
    1W        W58585  11.637  21.688   1.553 -0.1532 -0.0218 -0.3057
    1W        W58586   5.254  22.404   7.733  0.0819 -0.2427 -0.3827
    1W        W58587  23.410   6.362   0.595  0.0832  0.3112 -0.2431
    1W        W58588  25.246  27.018   2.481  0.0311 -0.0701 -0.0370
    1W        W58589  10.123   5.986   2.019  0.0713 -0.1226  0.1220
    1W        W58590  27.741   1.421   9.254 -0.2270 -0.3526 -0.0395
    1W        W58591   7.251  17.028   6.051  0.0785 -0.1672 -0.6024
    1W        W58592   4.478  24.231   0.339  0.2080 -0.2061  0.1940
    1W        W58593  14.693   6.100   3.218  0.0069  0.3794 -0.3372
    1W        W58594  16.469   3.651   8.833  0.0652 -0.2752  0.3945
    1W        W58595  15.122  26.528   0.149  0.0625 -0.3086 -0.2782
    1W        W58596  26.278   3.868   1.325  0.0048  0.1300 -0.4229
    1W        W58597  28.651  21.899   0.359  0.0294  0.1406  0.0780
    1W        W58598  15.015  17.625   1.390 -0.0331 -0.0590  0.2930
    1W        W58599  27.798  25.914   1.053  0.0468  0.1845  0.4420
    1W        W58600  19.730  11.086   8.428  0.3307  0.1799 -0.2406
    1W        W58601   8.769  16.922   2.121 -0.0800  0.1549 -0.0827
    1W        W58602  18.281   6.794   2.721 -0.1021  0.1078 -0.0890
    1W        W58603  21.062  27.618   1.800  0.1272 -0.0912  0.1937
    1W        W58604  19.122   0.345   8.009  0.2679 -0.1159  0.0958
    1W        W58605   4.226  19.114   8.295  0.0044  0.4594  0.0440
    1W        W58606   1.780   3.657   8.064  0.0360  0.1187 -0.0306
    1W        W58607  14.654  24.304   1.049  0.5102  0.2486 -0.0726
    1W        W58608  22.515   5.470   1.096 -0.2076 -0.3016  0.0016
    1W        W58609   5.169  18.756   1.004  0.1358  0.3455 -0.1452
    1W        W58610  27.495   0.517   7.126 -0.1490  0.1111  0.2864
    1W        W58611  18.589   1.003   2.866  0.0639 -0.1241  0.4195
    1W        W58612   2.759   4.702   0.654 -0.0020  0.0132 -0.0535
    1W        W58613  26.098  27.966   7.762  0.0473  0.1597  0.0763
    1W        W58614  10.611  19.097   6.561  0.0723 -0.1169  0.0122
    1W        W58615   4.302  25.754   7.343 -0.0980 -0.1955 -0.0545
    1W        W58616  22.682  28.324   7.831  0.1067 -0.3091 -0.1989
    1W        W58617   8.041  10.681   8.163 -0.0486 -0.1509  0.1256
    1W        W58618   0.112   9.361   2.409 -0.0714  0.2102 -0.0184
    1W        W58619   9.797  23.931   9.212  0.1787  0.2022 -0.0028
    1W        W58620  28.476  18.168   6.711 -0.0042  0.0267 -0.2101
    1W        W58621   7.767  27.878   8.027  0.2925 -0.2134 -0.1612
    1W        W58622  24.861   3.652   9.149  0.0350  0.0152 -0.3416
    1W        W58623   3.954  13.313   8.965 -0.2030 -0.0047 -0.2063
    1W        W58624  22.004  24.153   2.179 -0.2012  0.2498 -0.1702
    1W        W58625  23.623   3.865   0.046 -0.0823 -0.0506 -0.1460
    1W        W58626   3.496  24.000   1.342  0.0264 -0.1074 -0.1157
    1W        W58627  18.117  21.505   1.207  0.1908 -0.0978  0.2228
    1W        W58628   0.110  10.247   2.157  0.0760  0.0454  0.1361
    1W        W58629  26.306   1.450   3.209  0.0909  0.1281 -0.0742
    1W        W58630   2.342  10.627   0.301  0.2183  0.1321 -0.0988
    1W        W58631  14.890  12.741   8.887  0.0840 -0.0120  0.2457
    1W        W58632  25.203  26.570   6.116  0.1216  0.2019 -0.1710
    1W        W58633  29.171   9.281   2.091  0.0241 -0.3489  0.2846
    1W        W58634  22.345  26.419   8.999 -0.1978 -0.0080 -0.1383
    1W        W58635   8.256   6.175   1.314 -0.0986 -0.2270  0.2401
    1W        W58636   6.448  28.042   1.503 -0.2061  0.2968 -0.0417
    1W        W58637  26.714  20.525   0.870 -0.1618  0.2049 -0.0738
    1W        W58638  24.385  17.099   9.374  0.1697 -0.2056  0.0154
    1W        W58639  20.865   6.396   3.821 -0.2091 -0.0242 -0.0705
    1W        W58640  27.155  19.039   7.280 -0.1410 -0.1110 -0.1250
    1W        W58641  13.667  22.411   1.538 -0.0355 -0.2567 -0.0905
    1W        W58642  27.936   6.338   2.427  0.0851 -0.1788  0.1500
    1W        W58643  12.222  10.381   0.482 -0.1040 -0.2064 -0.1884
    1W        W58644  26.553  15.708   9.358 -0.0003  0.0404 -0.1279
    1W        W58645  12.772  20.599   7.000  0.0911 -0.0470 -0.1537
    1W        W58646   4.582  16.385   2.783 -0.1877 -0.0538 -0.2057
    1W        W58647  15.882  18.707   2.043  0.0138  0.0747  0.0102
    1W        W58648   7.373   8.561   7.214  0.1539  0.3307 -0.1405
    1W        W58649  27.509   3.804   1.020 -0.0462 -0.0942 -0.2801
    1W        W58650  21.902  12.403   2.176  0.1437  0.0693  0.1179
    1W        W58651  14.898  23.319   7.618 -0.1150 -0.0820  0.0224
    1W        W58652  14.229  22.838   7.189  0.1174  0.3276 -0.2928
    1W        W58653  24.108  22.257   2.622 -0.0174  0.2143  0.1704
    1W        W58654  17.520  26.193   0.918 -0.0356 -0.0900  0.0860
    1W        W58655  14.285  26.750   7.187  0.2269  0.0459  0.2925
    1W        W58656  21.230  12.535   7.464  0.0884 -0.0890 -0.0334
    1W        W58657  19.839  11.726   1.054 -0.0190 -0.0603  0.0521
    1W        W58658   2.052  26.176   1.179 -0.1578  0.1448 -0.0129
    1W        W58659  22.734  10.172   7.401  0.2072 -0.1961  0.0604
    1W        W58660  17.197   4.669   1.667  0.2149  0.1735  0.3486
    1W        W58661  25.112   2.770   1.889 -0.1965 -0.1536  0.0183
    1W        W58662  11.035   7.693   7.891 -0.1346  0.1881  0.0405
    1W        W58663   1.998  26.418   9.384 -0.2039  0.0229  0.0139
    1W        W58664   8.486   4.770   7.029 -0.0900 -0.0133 -0.1699
    1W        W58665   5.625   0.197   7.391  0.0117  0.1572  0.0747
    1W        W58666  18.480   3.302   8.491 -0.2251 -0.0951 -0.2385
    1W        W58667   8.474   0.276   1.878 -0.1930  0.0262 -0.1801
    1W        W58668  25.458  21.421   7.907 -0.2245  0.1928  0.0481
    1W        W58669   7.841  15.176   2.361 -0.0120  0.1787 -0.1964
    1W        W58670   2.521  10.111   7.119 -0.0786  0.0505 -0.1853
    1W        W58671   7.849  12.300   0.128  0.0008 -0.3143  0.3346
    1W        W58672  18.053  25.285   5.689  0.2343 -0.2621 -0.0595
    1W        W58673  22.412  21.483   8.149  0.0663 -0.1493  0.3390
    1W        W58674   0.586   3.853   7.422  0.0806  0.1162  0.3205
    1W        W58675  11.381  13.562   1.134 -0.0388 -0.1370 -0.0494
    1W        W58676  27.453  14.123   2.518  0.2081  0.0774 -0.2586
    1W        W58677   5.516  15.649   8.577  0.0154 -0.2473  0.0970
    1W        W58678  15.027  28.848   1.518 -0.2700  0.1023 -0.0977
    1W        W58679   3.016  19.923   8.434  0.1929  0.0104 -0.1292
    1W        W58680  20.988  16.201   2.090 -0.4406 -0.0255  0.0138
    1W        W58681  14.351   0.251   0.602 -0.3547  0.0711  0.0919
    1W        W58682  27.170   6.971   9.426 -0.0707 -0.2309  0.1185
    1W        W58683  10.890  17.508   6.642  0.2289 -0.0885 -0.0747
    1W        W58684   7.749  25.736   7.202 -0.2077 -0.0775 -0.1114
    1W        W58685  23.327   5.190   1.431 -0.0366 -0.0577  0.2152
    1W        W58686  27.326  19.532   6.108  0.1593 -0.3772  0.5051
    1W        W58687  23.309  13.890   6.675  0.0937  0.2043  0.5334
    1W        W58688   9.013   5.060   0.819 -0.1019 -0.4979  0.2055
    1W        W58689  28.593  16.427   2.494 -0.1281 -0.1061 -0.5165
    1W        W58690   3.059  23.605   9.481 -0.1510  0.0898 -0.0373
    1W        W58691  22.805   1.247   7.850  0.3332 -0.0700  0.2734
    1W        W58692   9.219  22.161   1.701  0.2094  0.0420  0.1580
    1W        W58693   7.229  23.518   6.901 -0.0328  0.1262 -0.1319
    1W        W58694  27.575  15.141   1.704  0.0715  0.1688 -0.0510
    1W        W58695   4.536  27.078   9.435 -0.0282 -0.1147  0.0771
    1W        W58696  21.271  11.269   1.683  0.0432 -0.0406  0.1130
    1W        W58697   9.900   3.953   1.175  0.1991  0.0540  0.0254
    1W        W58698   0.599   5.630   0.058  0.0501 -0.2074 -0.1325
    1W        W58699  10.896  11.947   7.016  0.2025  0.3839 -0.1262
    1W        W58700   1.732  10.199   2.185 -0.0761 -0.1115 -0.2778
    1W        W58701   7.188  13.298   8.591 -0.2091 -0.1975 -0.3211
    1W        W58702  16.004  28.795   0.262  0.0200  0.1759 -0.0959
    1W        W58703   1.243  13.482   0.890  0.1308 -0.1057 -0.1480
    1W        W58704  18.722  28.061   1.999  0.1929 -0.1068 -0.4528
    1W        W58705   5.998   5.804   6.954  0.0853 -0.0245 -0.0998
    1W        W58706  26.898   7.018   0.634 -0.1932 -0.1682  0.2706
    1W        W58707  10.125   7.790   3.085  0.5101  0.0051  0.3081
    1W        W58708   3.754   7.612   0.683  0.1768  0.1475  0.1542
    1W        W58709   6.103  18.177   7.890 -0.1155 -0.2881  0.0247
    1W        W58710   6.222  16.689   2.805 -0.2620  0.0129  0.0535
    1W        W58711  24.428  14.622   7.274  0.0058 -0.0360  0.2418
    1W        W58712   7.191  11.668   3.175 -0.1344 -0.7090  0.1471
    1W        W58713   0.267   0.608   0.100  0.0099  0.1610  0.3025
    1W        W58714   8.557  16.629   6.595  0.2894 -0.2716  0.3860
    1W        W58715  16.268  19.816   1.116 -0.0490 -0.3199  0.1119
    1W        W58716   1.647  10.151   1.314 -0.0009 -0.1115 -0.0804
    1W        W58717   9.179   3.042   7.757 -0.2488 -0.3235  0.0432
    1W        W58718   8.332  28.431   9.051  0.1378  0.1800  0.3216
    1W        W58719   8.873  14.828   6.946 -0.2346 -0.2196 -0.0555
    1W        W58720   8.870  22.800   8.637 -0.0433  0.1229 -0.0514
    1W        W58721  21.030  25.532   7.300 -0.0698  0.0178  0.1854
    1W        W58722   0.742  25.720   1.237  0.2758 -0.0828 -0.0926
    1W        W58723  23.802  13.939   1.177 -0.0732 -0.2417  0.1208
    1W        W58724   3.406   6.452   8.655  0.1081  0.3069  0.2777
    1W        W58725  17.708   8.443   0.424  0.1861  0.0357  0.2758
    1W        W58726  10.157  17.736   1.332  0.0428  0.0035  0.0156
    1W        W58727   8.052  20.214   6.816  0.2083 -0.1391 -0.0539
    1W        W58728  10.059  24.295   7.023  0.5682  0.1793 -0.3124
    1W        W58729  27.749  17.732   6.914  0.0611 -0.3345 -0.1084
    1W        W58730   4.373   8.658   8.220 -0.1208 -0.0080 -0.0046
    1W        W58731  11.837  25.128   8.914 -0.2319  0.0249  0.0456
    1W        W58732  23.863  17.872   0.101 -0.0923 -0.0195  0.2857
    1W        W58733  11.348  21.365   1.908 -0.0241 -0.1467 -0.0300
    1W        W58734  15.005  27.058   2.227  0.1813 -0.2339 -0.1650
    1W        W58735  14.933   9.573   7.737 -0.2456 -0.1327 -0.1909
    1W        W58736  21.148  21.522   8.667 -0.0286 -0.2900 -0.3458
    1W        W58737   5.646  22.511   6.586  0.2247  0.2142 -0.0178
    1W        W58738   3.153  28.213   1.611 -0.0792  0.0455 -0.3025
    1W        W58739   2.305  23.667   6.534 -0.0404  0.0807 -0.2435
    1W        W58740   6.098  26.065   1.764 -0.4035 -0.0193 -0.1910
    1W        W58741   0.251  26.217   0.044  0.0757  0.0509 -0.4742
    1W        W58742   2.258   5.607   1.540 -0.0679 -0.1105  0.1285
    1W        W58743  16.896  16.878   8.120  0.1081 -0.2514 -0.0767
    1W        W58744   9.331  29.486   8.788  0.0444  0.3076  0.4573
    1W        W58745  25.919  28.462   7.863  0.0881 -0.0237  0.2925
    1W        W58746  17.501  17.344   6.591 -0.1032  0.0615 -0.0734
    1W        W58747  23.665  28.558   8.923 -0.0277 -0.1300  0.2994
    1W        W58748  21.039   8.259   0.882 -0.0397  0.3482  0.1618
    1W        W58749  24.129  17.969   8.195 -0.0801  0.3075 -0.1064
    1W        W58750   8.446  25.667   0.476  0.1362 -0.1886  0.0145
    1W        W58751  21.735  22.109   1.952  0.1682  0.1026  0.0488
    1W        W58752  21.226   2.171   2.633 -0.1319 -0.2848  0.1157
    1W        W58753  27.588  27.506   0.376 -0.2083  0.0314  0.1519
    1W        W58754   7.356   4.478   7.949  0.3194  0.3162  0.1388
    1W        W58755   8.737  27.204   6.180 -0.2420  0.1239 -0.0961
    1W        W58756   2.004  21.227   0.192  0.2924 -0.0387 -0.1516
    1W        W58757  23.681   8.684   8.244 -0.2579  0.2469  0.0678
    1W        W58758  18.854  20.885   7.300  0.1163 -0.0448 -0.1604
    1W        W58759  11.777  25.475   2.702 -0.1551 -0.5173  0.0293
    1W        W58760  28.004   7.294   2.471 -0.1166  0.1199  0.0261
    1W        W58761  15.353  15.887   6.060  0.1840  0.0781 -0.1240
    1W        W58762  17.619  10.350   0.141 -0.3089  0.2633 -0.0386
    1W        W58763   2.436  23.106   8.568 -0.0002  0.3794  0.1732
    1W        W58764  24.646  11.985   2.247  0.2545 -0.2619 -0.0907
    1W        W58765  29.549  28.634   6.955  0.0342 -0.1638  0.2255
    1W        W58766   5.201  16.838   0.793 -0.1556 -0.1897 -0.4969
    1W        W58767  15.473  25.378   2.306  0.0562 -0.2954  0.2061
    1W        W58768  17.537  13.018   0.220  0.1002  0.0268 -0.0143
    1W        W58769  13.155  24.228   0.422  0.0130  0.0180  0.1201
    1W        W58770  24.318  22.434   2.207 -0.4003 -0.4613 -0.2521
    1W        W58771  13.035   0.070   0.170  0.3197  0.1824  0.1078
    1W        W58772   6.325   6.252   9.015 -0.1766 -0.0381 -0.1788
    1W        W58773  25.454   2.709   2.576 -0.0361  0.1693  0.3735
    1W        W58774   9.934  16.323   2.480  0.1697  0.0332  0.2479
    1W        W58775  15.718   7.266   0.348 -0.0694  0.2045  0.2149
    1W        W58776  14.153   9.149   0.400  0.0085  0.0382 -0.3163
    1W        W58777   7.266   5.507   7.390  0.0537  0.0569  0.0746
    1W        W58778  27.109  18.715   6.528  0.3621 -0.0552 -0.0390
    1W        W58779  17.879   0.618   3.186 -0.0210  0.0326 -0.1954
    1W        W58780   6.081  16.657   0.442 -0.1856 -0.2089 -0.3381
    1W        W58781   4.363   5.998   9.502 -0.0280 -0.0059 -0.0618
    1W        W58782   5.703  27.135   2.386  0.3435  0.0040  0.0170
    1W        W58783  13.067  16.355   7.126  0.1468  0.0035 -0.1202
    1W        W58784  15.574  11.644   7.783 -0.0600 -0.1297  0.1146
    1W        W58785   9.396   4.624   0.412 -0.0068 -0.1622  0.1809
    1W        W58786  16.417  18.455   1.764  0.1443 -0.1617  0.0928
    1W        W58787   1.178  22.080   8.552  0.1455 -0.2229 -0.0542
    1W        W58788   4.265  15.986   2.504 -0.0578  0.2041  0.0029
    1W        W58789   8.361  26.983   1.463 -0.0009  0.1223  0.2301
    1W        W58790   0.660  26.703   6.730 -0.0039 -0.1899  0.1139
    1W        W58791  26.949  24.237   2.491  0.2577  0.0379 -0.0058
    1W        W58792   2.928  28.473   1.981  0.0778 -0.0046  0.0411
    1W        W58793  13.872  28.115   9.011  0.2147  0.0851 -0.0393
    1W        W58794  15.876  21.969   9.017  0.1366 -0.1561 -0.1191
    1W        W58795  29.220   5.269   8.883 -0.0106  0.1696  0.0573
    1W        W58796  19.204  10.472   7.928 -0.1440 -0.0047  0.2812
    1W        W58797   1.330   8.765   9.496 -0.0140 -0.1441  0.1648
    1W        W58798  21.331  19.067   7.804  0.1324 -0.0188  0.2146
    1W        W58799   2.182   3.427   1.540  0.5200  0.3060  0.1437
    1W        W58800   3.663  28.095   6.414  0.3398 -0.0955  0.2274
    1W        W58801  10.786  22.551   5.965 -0.2293  0.2995 -0.0240
    1W        W58802  12.294  27.330   2.207  0.2095  0.0417  0.0435
    1W        W58803  15.831   3.679   3.667 -0.1935 -0.0247 -0.2199
    1W        W58804   8.004   4.874   7.609  0.0770  0.0942 -0.1517
    1W        W58805   1.525  17.696   6.211  0.0766  0.1259  0.1606
    1W        W58806  28.066   4.211   1.726  0.0183  0.0168 -0.2076
    1W        W58807   8.205  29.642   7.185  0.0757 -0.0794  0.3372
    1W        W58808   8.016  23.735   6.770  0.1488  0.2630  0.1968
    1W        W58809  14.747   1.612   8.490  0.1045 -0.1855 -0.0231
    1W        W58810  26.648   1.974   6.919 -0.1887 -0.0031  0.1459
    1W        W58811  20.675  22.500   6.412  0.0668 -0.0802 -0.2200
    1W        W58812  13.211  21.560   7.034  0.2879 -0.2256 -0.4005
    1W        W58813  16.127   3.669   8.490  0.0264 -0.0769  0.2031
    1W        W58814   0.722   3.127   2.499  0.2245 -0.0627 -0.0746
    1W        W58815  24.176   0.132   7.914 -0.1577 -0.0277 -0.1839
    1W        W58816  19.260  21.840   1.213 -0.1951  0.0165  0.0574
    1W        W58817   0.666  14.426   1.723 -0.1235  0.2098  0.0335
    1W        W58818  24.872  21.023   8.971  0.3418 -0.0524  0.0090
    1W        W58819   7.250  24.165   8.928  0.1756 -0.2887 -0.0004
    1W        W58820  20.815  18.045   7.333 -0.1293 -0.2759  0.0642
    1W        W58821  20.115   4.029   8.486 -0.0198  0.1392  0.2100
    1W        W58822  16.440  16.491   8.975 -0.1672 -0.3928  0.0335
    1W        W58823  13.615   5.077   1.148  0.2552 -0.0951 -0.4447
    1W        W58824  10.428   5.165   8.831  0.1868  0.0984 -0.1609
    1W        W58825   7.401   5.191   7.039 -0.0269  0.2119 -0.1141
    1W        W58826   4.926   4.062   8.408  0.2029  0.1574 -0.2621
    1W        W58827  15.342  14.236   7.905 -0.0947 -0.0063  0.2396
    1W        W58828  17.310  26.044   7.840  0.2081  0.0552 -0.3655
    1W        W58829  26.286  22.456   1.882  0.2384 -0.1367 -0.0507
    1W        W58830   6.797  16.355   1.699  0.2939  0.0174  0.0632
    1W        W58831   2.470  28.092   7.395 -0.2384 -0.4471  0.0853
    1W        W58832  17.898  28.885   3.666  0.3639  0.0391 -0.1688
    1W        W58833  11.703  29.073   0.850  0.2470  0.0671  0.4255
    1W        W58834   2.002  24.056   1.164  0.1971  0.2912 -0.1504
    1W        W58835  12.966   7.839   9.174 -0.0379  0.5378  0.0269
    1W        W58836  27.377   6.507   7.303  0.1287 -0.1513  0.2519
    1W        W58837   0.474  12.082   2.092  0.1410 -0.0273 -0.0656
    1W        W58838  12.460  15.354   7.708 -0.0080 -0.1342  0.2102
    1W        W58839   4.173  27.063   5.277 -0.0130 -0.1318  0.0711
    1W        W58840  22.731  26.296   1.277  0.1286  0.0664 -0.0663
    1W        W58841  20.936   2.351   7.873  0.0025  0.0655 -0.2807
    1W        W58842  28.470  14.395   0.915  0.0741  0.0160  0.0093
    1W        W58843  22.538   2.823   9.200 -0.0775  0.0799 -0.1429
    1W        W58844  13.178  27.553   8.990  0.0767 -0.0100  0.0108
    1W        W58845  28.119  10.408   0.540 -0.0411  0.0749 -0.1157
    1W        W58846   2.935  19.427   7.602  0.1740 -0.1621  0.1255
    1W        W58847  12.341  16.907   1.375  0.0138  0.0611  0.0408
    1W        W58848   3.306  21.942   1.934  0.2460 -0.0477 -0.1039
    1W        W58849  10.255   6.496   1.314  0.0387 -0.1063 -0.0908
    1W        W58850   9.493   4.116   3.258 -0.1264  0.0486  0.1069
    1W        W58851   3.708  25.243   9.422 -0.2862 -0.0228  0.1637
    1W        W58852  16.203   3.463   3.369 -0.0141 -0.0552  0.0979
    1W        W58853  10.137   1.095   7.848 -0.1602 -0.4229  0.0578
    1W        W58854  11.103   5.177   2.124  0.2467  0.0158  0.0087
    1W        W58855   1.757  15.144   2.253  0.2505  0.1129 -0.1139
    1W        W58856  22.898  23.293   6.822 -0.0431 -0.2662  0.3039
    1W        W58857  28.401  29.243   1.638  0.3145  0.1079 -0.1133
    1W        W58858   6.780  13.103   8.907  0.2271 -0.0378  0.3441
    1W        W58859  28.341  26.652   6.888 -0.2415  0.1588  0.0345
    1W        W58860  12.127  26.116   0.767 -0.2232 -0.1888  0.0662
    1W        W58861  23.452   0.488   1.038  0.2047  0.3315  0.1569
    1W        W58862  11.102  17.657   8.108 -0.2108  0.1232  0.0083
    1W        W58863  26.861   5.863   0.581 -0.3837  0.2408 -0.1570
    1W        W58864   0.355  12.499   7.012  0.0501 -0.0739 -0.0498
    1W        W58865  15.921   4.176   1.992  0.1087  0.1439  0.1111
    1W        W58866   6.149  12.989   1.857  0.0067 -0.1924 -0.1864
    1W        W58867   7.936  13.884   9.046 -0.0083 -0.2104  0.2103
    1W        W58868  17.940   9.853   8.856  0.3571  0.1808  0.2622
    1W        W58869  15.966  24.873   5.328  0.3296  0.1233  0.1992
    1W        W58870  22.986  12.159   9.103 -0.0381 -0.0771  0.1445
    1W        W58871  10.671   4.136   0.864 -0.1401  0.0163 -0.3372
    1W        W58872  12.989   7.509   3.498 -0.4621  0.1146 -0.1784
    1W        W58873  10.201  28.158   8.099  0.0764  0.0696 -0.0836
    1W        W58874  23.670  16.174   7.187 -0.0597  0.1395  0.2565
    1W        W58875  22.340  14.817   0.819 -0.1805 -0.2310 -0.1966
    1W        W58876  11.026  27.014   9.413  0.1717 -0.1075  0.2740
    1W        W58877   9.274   2.350   2.992 -0.0684 -0.0266  0.0510
    1W        W58878  21.375  26.677   7.833 -0.0320  0.2894  0.1051
    1W        W58879   8.649  27.052   1.933 -0.0288  0.1984 -0.0936
    1W        W58880  25.881  23.333   8.825  0.2904  0.1687 -0.1195
    1W        W58881  12.048  18.966   8.211 -0.1397 -0.2878 -0.2114
    1W        W58882  20.404  14.449   1.932 -0.1953 -0.0655 -0.0694
    1W        W58883  17.197  18.309   0.946  0.0619  0.2391 -0.1146
    1W        W58884  16.640  28.396   1.819 -0.1391  0.0877  0.1140
    1W        W58885   0.644  28.468   1.159 -0.1740 -0.0147 -0.1830
    1W        W58886   7.548  18.560   9.350 -0.2037  0.0375  0.0667
    1W        W58887   3.834  27.550   7.760 -0.0320  0.0965  0.0272
    1W        W58888  11.351   4.174   3.450 -0.1704  0.3234 -0.0901
    1W        W58889   2.506  18.524   7.509  0.0577 -0.3497 -0.2205
    1W        W58890  20.942  19.189   8.789 -0.0988  0.0903 -0.3719
    1W        W58891  10.110  25.415   0.696  0.0046  0.2287 -0.3149
    1W        W58892   1.248   2.348   0.390 -0.1036  0.4706  0.2318
    1W        W58893  21.192   4.684   8.408  0.2965 -0.2196 -0.0096
    1W        W58894   8.847  13.100   8.159 -0.2577  0.1159  0.0538
    1W        W58895  24.638   5.265   0.148 -0.2445  0.0314  0.0612
    1W        W58896  19.636   1.161   8.807 -0.1932 -0.0319  0.3791
    1W        W58897  16.022  18.434   7.274 -0.0117  0.1649 -0.1470
    1W        W58898  14.752   9.783   2.421 -0.1683 -0.1436  0.2315
    1W        W58899  19.399  21.835   9.137  0.0557 -0.0411  0.0406
    1W        W58900   2.216  25.471   5.103  0.3662  0.2195  0.0865
    1W        W58901  20.524  21.836   6.771 -0.0262  0.0205 -0.3188
    1W        W58902   5.042  17.218   1.358  0.0902 -0.1165 -0.0369
    1W        W58903  16.522   3.794   7.811 -0.0674  0.2054 -0.0198
    1W        W58904  24.244   3.426   2.856  0.2288  0.1776 -0.0203
    1W        W58905  20.014  20.049   1.845  0.0810  0.0416 -0.4786
    1W        W58906  14.345  16.926   7.840  0.2586 -0.2150  0.0927
    1W        W58907  12.148   4.570   8.824  0.1049 -0.0970 -0.1942
    1W        W58908   6.776  17.012   1.086  0.0062 -0.1351 -0.0514
    1W        W58909   3.071   9.004   7.075 -0.1457  0.3631 -0.0693
    1W        W58910  10.369  28.829   1.215 -0.0417 -0.1406  0.3761
    1W        W58911   3.285   8.856   7.543 -0.0659  0.0266 -0.0666
    1W        W58912  17.082   3.591   0.538  0.0710 -0.0135  0.1819
    1W        W58913  18.113  19.074   1.485 -0.3999 -0.0869 -0.1336
    1W        W58914  10.673   2.831   3.418  0.4264  0.1637  0.1750
    1W        W58915  20.410  28.414   9.156 -0.0817 -0.0406 -0.0642
    1W        W58916   5.372   9.958   8.720  0.1569  0.0877 -0.2051
    1W        W58917   6.723   5.246   8.033 -0.0456 -0.0939  0.1608
    1W        W58918  19.227   4.982   8.569 -0.1283 -0.0425  0.3290
    1W        W58919   2.481   0.350   6.162 -0.1066  0.1946 -0.1676
    1W        W58920  27.582  14.825   7.673  0.4019 -0.1076 -0.1662
    1W        W58921   5.939  22.812   1.557  0.1037  0.0236  0.2876
    1W        W58922   8.052  10.995   6.834 -0.1712 -0.5406 -0.2831
    1W        W58923  16.703  24.573   8.117 -0.1676 -0.0751 -0.0221
    1W        W58924  15.475  24.134   6.795 -0.0244  0.0791  0.1637
    1W        W58925   1.656  10.650   8.572 -0.0285 -0.0863 -0.0520
    1W        W58926   0.952  14.033   1.546 -0.0851 -0.1333 -0.0564
    1W        W58927   4.375  23.315   6.137 -0.0740  0.0564  0.1593
    1W        W58928   9.198  12.410   1.372 -0.0980 -0.0784  0.2545
    1W        W58929  22.459  20.289   7.155 -0.1236 -0.2116 -0.1956
    1W        W58930  22.284  25.841   2.005 -0.4686  0.0494 -0.0327
    1W        W58931  20.629  22.960   9.333  0.3370  0.1758  0.2915
    1W        W58932  10.363   5.992   7.584 -0.3061  0.0927  0.1142
    1W        W58933   8.121  24.239   5.939 -0.4019 -0.1267 -0.0410
    1W        W58934  15.048  18.021   0.979  0.3297  0.0167 -0.3006
    1W        W58935   4.492  20.731   2.201 -0.0807  0.1706  0.3682
    1W        W58936  16.766  24.128   1.844  0.0527 -0.3150  0.0048
    1W        W58937  18.724  28.286   0.742 -0.0418 -0.0911 -0.1390
    1W        W58938  19.143  14.726   7.660  0.0715 -0.0073  0.3581
    1W        W58939  17.284   7.468   9.134 -0.2766 -0.0278 -0.0897
    1W        W58940  14.906   0.350   7.034 -0.1664  0.2509  0.0180
    1W        W58941   6.547   0.738   7.787 -0.0973 -0.0031 -0.0152
    1W        W58942   6.995   7.418   6.532  0.0821  0.3362  0.0139
    1W        W58943  27.815  15.781   7.478  0.0387 -0.0282  0.4199
    1W        W58944  14.633  14.985   9.244 -0.1487 -0.3242  0.0970
    1W        W58945  14.295  16.564   6.106  0.0464 -0.1308  0.4181
    1W        W58946  18.802   0.367   3.413  0.2688 -0.1670 -0.0858
    1W        W58947  13.379  26.607   7.653 -0.0281 -0.0399 -0.1058
    1W        W58948   3.088  23.319   6.563 -0.2335 -0.1076  0.0518
    1W        W58949  28.706  22.292   3.010  0.1023  0.1029  0.1664
    1W        W58950   4.381  16.627   8.375 -0.2176  0.1468  0.1116
    1W        W58951  26.870  27.061   1.904 -0.1076 -0.0070 -0.1400
    1W        W58952  14.934   4.316   3.637  0.2731  0.3510  0.0375
    1W        W58953  24.585   2.967   0.790  0.0728  0.2358  0.3010
    1W        W58954  11.280   7.018   0.514 -0.1238 -0.0882  0.1645
    1W        W58955  28.741   2.861   7.683 -0.0032  0.2164 -0.2147
    1W        W58956  29.437   7.360   3.035  0.0382 -0.2948  0.1324
    1W        W58957  12.887  23.013   0.624  0.0232  0.3342 -0.1117
    1W        W58958  19.015  13.330   2.126  0.1614  0.0480  0.2568
    1W        W58959  10.744   6.102   3.528  0.1461  0.1148  0.1959
    1W        W58960   8.739  28.909   8.772 -0.0096 -0.1186  0.0606
    1W        W58961  13.412  14.232   6.936 -0.0927 -0.1989  0.0735
    1W        W58962   4.085   0.325   1.176  0.2384  0.1840  0.0254
    1W        W58963  29.289  19.564   8.188 -0.1479 -0.0911  0.1415
    1W        W58964  24.474  17.008   8.880 -0.0493  0.0059 -0.1251
    1W        W58965   8.706   9.600   1.283  0.0154 -0.0807 -0.1635
    1W        W58966  11.210  10.366   1.091  0.0133 -0.1166  0.0415
    1W        W58967  11.235   9.278   6.851  0.2027 -0.3437  0.0152
    1W        W58968  16.061  26.629   6.002  0.0559 -0.0591  0.2626
    1W        W58969  22.382  13.943   7.287  0.2176 -0.1922 -0.4031
    1W        W58970  27.967  29.016   1.393  0.3528 -0.2233 -0.0263
    1W        W58971  10.988  25.447   2.369  0.1480  0.0220 -0.2426
    1W        W58972  15.834  27.568   7.477  0.1933  0.2072  0.0239
    1W        W58973  17.123  13.157   8.289 -0.1792  0.0317  0.1346
    1W        W58974  20.484  28.770   1.269  0.0814  0.1041 -0.0104
    1W        W58975   7.923  13.106   0.306 -0.2785 -0.2117  0.0609
    1W        W58976  15.357  28.922   2.529  0.2570  0.0015 -0.0435
    1W        W58977  20.494   6.295   9.347  0.2578 -0.3410  0.0670
    1W        W58978  20.858  25.018   6.271 -0.1970  0.1855 -0.2706
    1W        W58979  23.469   0.258   1.871  0.1071  0.0417  0.2689
    1W        W58980   4.297  29.463   0.408  0.0516  0.0667  0.0550
    1W        W58981   8.648  15.154   1.289  0.0333  0.2703  0.2290
    1W        W58982   6.513  22.040   1.710 -0.1277 -0.0654 -0.0401
    1W        W58983  22.813  14.919   9.267  0.1666  0.1787  0.0450
    1W        W58984   3.155  25.917   2.301 -0.1860  0.0396 -0.2036
    1W        W58985   9.131  26.568   0.581 -0.2050 -0.0751  0.2862
    1W        W58986  29.693  11.084   1.761 -0.2533 -0.0649  0.1896
    1W        W58987  11.025  21.686   8.234 -0.1670 -0.0460  0.5535
    1W        W58988   9.997  18.444   2.426  0.0355 -0.1967 -0.4563
    1W        W58989   9.865   5.563   8.200 -0.0836  0.0765 -0.3866
    1W        W58990  24.271  26.396   8.929  0.0318  0.1691 -0.1126
    1W        W58991  23.145  26.518   2.875  0.2992  0.3110 -0.0106
    1W        W58992  16.508  26.051   7.535 -0.4132 -0.0963 -0.3860
    1W        W58993   9.567   2.751   3.257  0.1398  0.1172  0.2869
    1W        W58994  23.524  27.038   0.292  0.0487 -0.1926  0.1316
    1W        W58995  11.760   1.124   6.900  0.2124 -0.0689  0.0405
    1W        W58996  28.882   3.064   1.156 -0.1004 -0.1033  0.1780
    1W        W58997  11.983  24.101   0.131 -0.3695 -0.0558 -0.0717
    1W        W58998  14.221  26.433   7.630  0.0783  0.0641 -0.0703
    1W        W58999   8.259   2.151   2.407  0.0644 -0.0180 -0.0549
    1W        W59000   4.852  13.628   6.770 -0.1444  0.1244 -0.1417
    1W        W59001  18.455  15.621   0.804  0.0549  0.1511  0.2133
    1W        W59002  22.252   6.389   2.501  0.0284 -0.1081  0.1351
    1W        W59003   5.753  11.707   0.353 -0.2806 -0.0685  0.3069
    1W        W59004   7.155   8.750   2.326  0.0773  0.0979 -0.3418
    1W        W59005  21.668  27.962   0.987 -0.0831 -0.1476 -0.2807
    1W        W59006  12.233   1.627   8.230  0.2649 -0.0118  0.0599
    1W        W59007   3.954   1.161   8.181  0.6349 -0.0365  0.0359
    1W        W59008  26.356  28.113   6.336 -0.1403  0.0478 -0.2849
    1W        W59009  20.792  27.837   8.207 -0.1612  0.2528 -0.2248
    1W        W59010  20.103   7.383   9.415 -0.1589 -0.2575  0.2505
    1W        W59011  23.225   6.717   9.483  0.0464 -0.0502 -0.0260
    1W        W59012   4.543   2.557   8.771 -0.0700 -0.0060 -0.0113
    1W        W59013   6.202  13.432   1.228  0.1802  0.0955 -0.0246
    1W        W59014  23.019   1.939   0.488 -0.2387 -0.2060 -0.2335
    1W        W59015  10.060  18.111   0.483  0.2474  0.0463 -0.0288
    1W        W59016   3.313  13.630   2.173  0.0198  0.1113  0.1154
    1W        W59017  24.655   1.300   1.398  0.0743  0.0224  0.3222
    1W        W59018  29.726  17.929   0.619  0.0976  0.0308 -0.1149
    1W        W59019   7.046  16.653   0.735  0.3405 -0.0600  0.2990
    1W        W59020   8.591  16.308   0.159 -0.2203 -0.0139 -0.0738
    1W        W59021   7.104  18.753   9.085 -0.1811 -0.1755  0.0393
    1W        W59022  18.532  25.628   1.658 -0.2886 -0.3459 -0.0563
    1W        W59023  27.135   9.422   1.479 -0.2863 -0.0943  0.2860
    1W        W59024  24.439  22.331   9.243 -0.0632  0.1690  0.0525
    1W        W59025  18.763   7.311   8.653  0.0169  0.4326 -0.1385
    1W        W59026  28.532  15.342   2.843 -0.1086 -0.1176  0.0059
    1W        W59027  26.452   2.610   2.409 -0.0547  0.1678  0.3800
    1W        W59028   2.492   1.054   7.486  0.1458 -0.1721 -0.2057
    1W        W59029   4.099  11.714   1.138 -0.1414 -0.0783  0.2849
    1W        W59030  21.993   5.285   3.026  0.1500 -0.1025 -0.0585
    1W        W59031   8.779  14.735   1.502  0.2488 -0.2527 -0.1019
    1W        W59032  27.310  10.564   0.647 -0.2594  0.0983 -0.0021
    1W        W59033   2.660   9.577   3.032 -0.0791  0.0605 -0.0140
    1W        W59034  14.668   0.539   8.872 -0.2912 -0.0343  0.0444
    1W        W59035   2.998  28.439   1.203  0.0170  0.1538  0.1527
    1W        W59036  27.174  13.649   0.932 -0.2037 -0.2118  0.0985
    1W        W59037  29.710   6.183   2.829 -0.1959 -0.0543  0.0086
    1W        W59038  22.714  18.744   8.824 -0.4422 -0.3936 -0.2477
    1W        W59039  21.751  13.635   0.489  0.1571  0.1914 -0.1121
    1W        W59040  10.635   6.802   1.188  0.1969 -0.2405  0.2711
    1W        W59041  15.066  17.282   8.541 -0.2026  0.2177  0.2401
    1W        W59042   4.688   5.798   8.143 -0.2356  0.0371 -0.1823
    1W        W59043  13.793  21.028   1.472 -0.0926  0.0305 -0.0782
    1W        W59044   9.377  24.096   6.621 -0.1629 -0.0956  0.2336
    1W        W59045  13.826  11.156   7.515 -0.0733 -0.0351 -0.1592
    1W        W59046   3.739  16.142   6.669 -0.1450 -0.3085 -0.2640
    1W        W59047   6.610  24.806   6.419 -0.0683 -0.0893  0.1206
    1W        W59048   7.202   6.572   0.440 -0.0861 -0.1144  0.1878
    1W        W59049  21.630  29.801   1.632 -0.0575 -0.1161  0.1024
    1W        W59050   6.648  13.617   8.954 -0.0259 -0.0948  0.2003
    1W        W59051   8.383   9.201   1.107  0.2173 -0.1813 -0.1026
    1W        W59052   6.557  28.008   7.211  0.0641  0.0293 -0.0199
    1W        W59053  17.215  22.621   9.070  0.0656  0.0062 -0.1098
    1W        W59054   1.567  27.052   0.212 -0.0552  0.0531  0.1100
    1W        W59055   0.866  17.408   1.367 -0.0577  0.2768 -0.2929
    1W        W59056  16.403   2.933   3.144  0.0929  0.3480 -0.0050
    1W        W59057   4.215  21.955   0.623  0.0474 -0.1516 -0.1269
    1W        W59058  28.431  17.206   2.035  0.0990  0.0895  0.1610
    1W        W59059  28.621  22.110   0.862  0.0091  0.1717 -0.0045
    1W        W59060   7.494   4.938   7.444  0.1477 -0.3207 -0.2215
    1W        W59061   3.334   2.539   7.466 -0.4380  0.1219  0.0608
    1W        W59062   7.842  17.086   1.810  0.0261 -0.0335 -0.2718
    1W        W59063  23.561  26.431   2.639  0.2499 -0.0297  0.1020
    1W        W59064   5.597  29.618   1.731  0.0085  0.1121  0.0622
    1W        W59065   2.313   5.061   2.178 -0.0990  0.0885  0.0336
    1W        W59066  15.409  29.718   7.558  0.4383  0.0983 -0.0111
    1W        W59067  15.877   6.149   9.187 -0.0196 -0.1464  0.0045
    1W        W59068   9.159  28.588   7.252  0.0091  0.4086  0.2249
    1W        W59069  10.435   2.451   3.820 -0.3048  0.0704  0.1511
    1W        W59070  26.777  19.294   7.520  0.1909 -0.2071 -0.1520
    1W        W59071  20.934   6.928   0.349  0.1560  0.0611 -0.0607
    1W        W59072  10.281  11.959   1.116 -0.0255  0.0250  0.3698
    1W        W59073  29.601  22.192   2.533  0.2437 -0.1105  0.3108
    1W        W59074  19.203  26.809   8.294 -0.0325 -0.1514 -0.0400
    1W        W59075  23.603  18.055   1.071  0.1951 -0.3503 -0.1437
    1W        W59076   2.896  18.189   7.454  0.0406  0.0447  0.1845
    1W        W59077  26.681   6.990   7.030 -0.1574  0.2084  0.0953
    1W        W59078  12.995  28.570   8.362 -0.0440 -0.1083  0.0314
    1W        W59079  26.622  16.675   8.026  0.0593  0.1537 -0.1824
    1W        W59080  24.107  12.001   1.647  0.2319 -0.4315  0.0177
    1W        W59081   7.542   8.553   2.554 -0.0541  0.0360  0.1687
    1W        W59082  28.485  11.670   8.267 -0.0238 -0.0803  0.0066
    1W        W59083  29.047   7.164   7.718  0.0131 -0.0329  0.2028
    1W        W59084  10.406  28.025   7.671 -0.0386  0.0363 -0.0508
    1W        W59085  29.417  18.201   7.309  0.2781 -0.0008 -0.0509
    1W        W59086  11.924  16.887   7.345  0.0081  0.0819 -0.1025
    1W        W59087  13.556   3.782   1.280  0.3791  0.0062 -0.2561
    1W        W59088   8.168  14.092   1.916  0.1135  0.2838 -0.2012
    1W        W59089  21.978  12.055   8.323  0.1211 -0.3509 -0.1352
    1W        W59090   0.449  24.755   0.110 -0.0512  0.1353  0.1495
    1W        W59091  10.178  12.978   9.427  0.0870  0.0307  0.1441
    1W        W59092   3.467  15.212   7.215 -0.0390 -0.1788  0.2846
    1W        W59093   4.447  12.901   6.509 -0.0316 -0.1038 -0.2278
    1W        W59094  12.647   3.827   3.301  0.1606  0.1687 -0.2076
    1W        W59095  16.183  24.376   6.066 -0.2545 -0.0821 -0.1827
    1W        W59096  19.200  29.193   7.705  0.0247  0.0957 -0.2103
    1W        W59097  21.574   3.435   0.283  0.2618 -0.0604  0.0598
    1W        W59098  11.603   7.750   2.444  0.1718 -0.1749 -0.1994
    1W        W59099   9.308  16.943   8.776  0.0582  0.3250 -0.2287
    1W        W59100  16.459  19.860   0.634  0.1121  0.3460  0.1917
    1W        W59101   8.998   9.923   6.726 -0.1918 -0.1674 -0.0254
    1W        W59102   2.875  12.081   0.466 -0.0110  0.3369  0.0465
    1W        W59103  20.366   2.347   1.084  0.0138 -0.2456  0.0986
    1W        W59104   3.926   1.436   8.658  0.2079  0.5503 -0.0834
    1W        W59105   4.539  20.820   7.249  0.1620 -0.0400 -0.0793
    1W        W59106   1.230  18.705   0.397 -0.3110  0.3061 -0.0711
    1W        W59107   3.187  12.345   7.494 -0.1466  0.2962 -0.0641
    1W        W59108  19.790  11.883   8.436  0.0993  0.0338 -0.2543
    1W        W59109  22.316   7.336   2.420  0.1684  0.0799 -0.1316
    1W        W59110  15.194  18.408   7.828  0.0125 -0.2298 -0.2143
    1W        W59111   1.872  20.257   6.515 -0.1531  0.3259 -0.1620
    1W        W59112  25.050   4.499   7.710 -0.2211  0.1954 -0.0919
    1W        W59113   7.440  12.068   9.494 -0.0489  0.0164  0.1376
    1W        W59114  17.891  14.450   7.522 -0.0344  0.1655 -0.1845
    1W        W59115  18.943   8.968   8.117  0.2349  0.0052 -0.1615
    1W        W59116  18.013   5.215   0.298  0.0371  0.0980  0.1521
    1W        W59117  10.020  20.984   6.682  0.1922  0.0734 -0.1470
    1W        W59118  28.870  20.094   7.058  0.1939 -0.3938  0.2198
    1W        W59119  13.518  17.787   8.495 -0.0577  0.0827  0.2087
    1W        W59120  24.092  19.552   2.309 -0.0994  0.5226 -0.2460
    1W        W59121  14.018   9.012   2.400 -0.2054 -0.3538  0.3185
    1W        W59122   9.453   4.894   0.011  0.1539 -0.1415 -0.0091
    1W        W59123  18.929  23.097   8.860  0.2127  0.0995  0.0815
    1W        W59124  25.796   6.785   8.180 -0.2390  0.2882 -0.0767
    1W        W59125   5.685   4.731   7.719 -0.0237  0.1456  0.0919
    1W        W59126   3.113  17.445   7.903  0.4722 -0.1354  0.1390
    1W        W59127   3.914  28.468   0.573 -0.2397 -0.3705 -0.0015
    1W        W59128  10.879  17.465   7.197 -0.0140 -0.0194  0.0627
    1W        W59129  28.004  19.552   8.884 -0.0761 -0.0845 -0.3893
    1W        W59130   7.409   9.376   8.410  0.1866 -0.0513  0.3441
    1W        W59131  16.111   9.791   8.985 -0.3057 -0.1224 -0.0142
    1W        W59132  20.451  16.783   9.337 -0.0273  0.1526 -0.0426
    1W        W59133  16.418  21.525   0.028 -0.0003  0.3620  0.0519
    1W        W59134  27.170   7.063   1.591 -0.0646  0.2398  0.1634
    1W        W59135  14.026  21.206   7.350  0.0495 -0.1840  0.2958
    1W        W59136  14.678  24.445   9.081 -0.2993  0.0534  0.2348
    1W        W59137   8.495   6.860   0.577 -0.0875  0.0394 -0.0271
    1W        W59138  13.846  21.813   0.086 -0.2189  0.0890 -0.1946
    1W        W59139  27.521   1.251   8.775  0.2871 -0.0724 -0.0861
    1W        W59140  13.186  11.406   1.389  0.0539 -0.2854  0.2047
    1W        W59141  27.463  21.036   7.625  0.1271  0.3666 -0.0122
    1W        W59142  27.720  23.732   9.307  0.0729  0.2652 -0.0595
    1W        W59143   7.932   9.599   2.680 -0.0285 -0.1689  0.4021
    1W        W59144  29.465  15.063   8.401  0.1887  0.2196 -0.1689
    1W        W59145   5.841  18.060   2.319  0.2852  0.0443 -0.1780
    1W        W59146  17.778  25.715   1.811  0.1039  0.0654 -0.0071
    1W        W59147  10.395  10.491   9.419  0.1182 -0.0025 -0.3263
    1W        W59148  22.931  28.701   9.127  0.2160 -0.1583 -0.0234
    1W        W59149   7.560   7.218   7.652  0.4540 -0.1939  0.2325
    1W        W59150  20.203   3.956   2.271 -0.0847 -0.0607 -0.0732
    1W        W59151   4.105  26.440   1.391 -0.2726  0.2186  0.1142
    1W        W59152  13.451  29.575   0.962  0.1091 -0.0347 -0.0932
    1W        W59153  14.969  14.201   7.506 -0.4638 -0.0995 -0.1088
    1W        W59154  18.953  28.301   8.217  0.1044 -0.0894 -0.2364
    1W        W59155  20.982  25.093   7.086  0.0784  0.1450 -0.2533
    1W        W59156   6.852   5.563   8.779  0.0190  0.1990 -0.1165
    1W        W59157  16.514   6.234   7.932  0.3500  0.2671  0.0095
    1W        W59158  29.666  16.860   8.673  0.2569  0.1476  0.1439
    1W        W59159  24.342  18.599   8.096 -0.1690 -0.2781 -0.0903
    1W        W59160  16.700  27.531   9.237 -0.0280  0.0700 -0.2185
    1W        W59161  25.293   7.220   0.377 -0.0467 -0.0996  0.2422
    1W        W59162  12.238  22.175   7.960  0.1323 -0.2280 -0.1356
    1W        W59163  22.421  12.730   7.082 -0.0071 -0.4924 -0.2983
    1W        W59164   1.697   1.027   7.255 -0.0650 -0.0746 -0.0660
    1W        W59165   3.841  28.906   9.271  0.0324 -0.0080 -0.0734
    1W        W59166   6.268   5.908   6.457  0.1645 -0.1781  0.2908
    1W        W59167  19.855  23.812   0.260  0.0090 -0.1748 -0.1274
    1W        W59168  22.964   5.610   1.399  0.1266 -0.1395  0.0923
    1W        W59169  12.626   6.447   3.228 -0.0895 -0.1619 -0.0246
    1W        W59170  17.590  16.554   7.396  0.0306 -0.2004 -0.2787
    1W        W59171   5.892   6.261   6.303  0.1762 -0.3719 -0.0376
    1W        W59172   2.297  27.373   5.167  0.0122 -0.1270  0.0138
    1W        W59173  24.953   3.199   1.022 -0.6022  0.1188  0.0815
    1W        W59174  11.392  15.231   1.956  0.2871 -0.2950 -0.0767
    1W        W59175  14.396   9.403   2.387 -0.0023  0.0437  0.1575
    1W        W59176  28.920  26.501   1.162 -0.1779  0.0436 -0.1348
    1W        W59177   7.710   7.741   2.695  0.3653  0.3196  0.1107
    1W        W59178  11.921   4.198   7.925  0.0719  0.0949  0.1280
    1W        W59179  24.813  23.083   0.272  0.0671  0.1813  0.1690
    1W        W59180  22.074  11.564   8.200  0.2323  0.2027 -0.0074
    1W        W59181  16.656  19.478   9.291  0.0583 -0.1247  0.0639
    1W        W59182   6.829  12.231   1.643  0.0878 -0.1499 -0.0120
    1W        W59183  14.749  17.151   7.591  0.0184 -0.1120 -0.0335
    1W        W59184  29.596  12.252   2.391  0.0475 -0.1877 -0.0724
    1W        W59185  11.897  18.806   0.495 -0.1959  0.2902  0.1319
    1W        W59186   5.889   9.226   1.671 -0.1456  0.0918  0.2498
    1W        W59187  15.976  17.886   1.665 -0.0372 -0.2261 -0.0315
    1W        W59188  29.442   5.457   1.544  0.0615 -0.4161 -0.1130
    1W        W59189  16.014   3.329   1.722 -0.0109  0.2915  0.1444
    1W        W59190  16.942  11.978   2.178 -0.1995 -0.0413 -0.3211
    1W        W59191  21.648  24.266   0.350 -0.1549 -0.1669 -0.0294
    1W        W59192  11.869   3.924   0.764 -0.3260 -0.1117 -0.0736
    1W        W59193  26.181  11.319   7.743  0.1899  0.0902  0.1676
    1W        W59194  12.888   9.527   9.399  0.3246 -0.1564  0.3160
    1W        W59195   6.232  12.376   2.479  0.2752  0.0119 -0.0644
    1W        W59196  29.792  21.764   7.487  0.1213 -0.4009 -0.3572
    1W        W59197   2.372   1.318   6.132  0.1319  0.3905  0.2552
    1W        W59198  12.930   3.551   9.502 -0.2233  0.0510 -0.1199
    1W        W59199  20.041   0.448   0.240 -0.1493  0.2070 -0.2152
    1W        W59200   6.008  15.423   2.676 -0.0017 -0.2564  0.1394
    1W        W59201  24.077  20.317   9.332  0.0015  0.3277 -0.0033
    1W        W59202  11.597  29.450   3.564  0.2607  0.2596  0.0101
    1W        W59203  18.871   3.981   0.218  0.1824  0.0255  0.0684
    1W        W59204   8.206   3.478   1.924  0.1384 -0.1078  0.0257
    1W        W59205  26.557  24.079   7.399  0.2790 -0.2510  0.0699
    1W        W59206   6.710  28.519   7.273  0.1418 -0.0804  0.2251
    1W        W59207   5.376  20.515   6.210  0.0880 -0.1395 -0.0364
    1W        W59208  22.944   4.716   0.756  0.0095  0.1703  0.0735
    1W        W59209   5.636  27.251   6.942 -0.1537  0.3227 -0.0393
    1W        W59210   7.800  21.016   8.592  0.1162 -0.2402 -0.1980
    1W        W59211   7.446  26.054   8.355  0.0615  0.3321 -0.2138
    1W        W59212   7.809  25.304   2.021 -0.1707  0.0123  0.0148
    1W        W59213   2.129   0.309   1.035 -0.0536  0.0926 -0.0921
    1W        W59214   9.944   4.689   3.858 -0.1276  0.0222 -0.0221
    1W        W59215  27.323  20.844   1.111  0.0629 -0.2441  0.1798
    1W        W59216  22.709  23.386   0.165 -0.0313  0.4384 -0.2178
    1W        W59217   7.205  22.796   5.473 -0.3218  0.0342  0.0690
    1W        W59218  25.408  21.962   2.760 -0.1644 -0.0012  0.2212
    1W        W59219   5.572   9.116   7.279  0.2508 -0.0951 -0.0939
    1W        W59220  15.630  16.958   2.046 -0.1184  0.0707 -0.0334
    1W        W59221   7.764   7.213   1.444 -0.2482  0.0492 -0.0231
    1W        W59222  28.926   6.470   2.356  0.0859  0.1799  0.0439
    1W        W59223  26.610  26.703   6.982  0.2767 -0.0143  0.0856
    1W        W59224  11.489  23.950   0.127 -0.0386 -0.1459 -0.1395
    1W        W59225  21.494  24.465   6.594 -0.1735 -0.0632  0.5638
    1W        W59226  17.758  29.716   4.025  0.1416  0.0493  0.0856
    1W        W59227  16.631   8.825   8.611 -0.1207 -0.3501 -0.1807
    1W        W59228  25.842  24.648   8.352  0.0897  0.0694  0.0132
    1W        W59229  24.082  27.630   1.948 -0.2934 -0.1637 -0.0113
    1W        W59230  16.716   5.400   8.456  0.0270  0.0472 -0.0554
    1W        W59231   6.720  10.896   8.544 -0.0342  0.2301 -0.0694
    1W        W59232  24.781  14.816   8.151 -0.2214  0.1203  0.0755
    1W        W59233  21.322   7.104   8.608  0.1074  0.3882  0.0503
    1W        W59234  12.406   5.400   9.262  0.1341  0.0737 -0.2480
    1W        W59235  21.742   9.466   0.779  0.0723 -0.1730  0.1630
    1W        W59236   0.425  11.531   2.565  0.2481 -0.2165  0.2584
    1W        W59237   1.345  24.382   0.501  0.2609 -0.0856 -0.2198
    1W        W59238  17.679   6.022   0.647 -0.1643  0.1822 -0.3943
    1W        W59239  23.497  12.932   0.131 -0.0087 -0.3284  0.1547
    1W        W59240  28.571  29.556   7.265  0.1527 -0.1302 -0.1835
    1W        W59241   1.790   5.997   3.691  0.0717 -0.1283  0.0396
    1W        W59242   3.747  11.254   8.099 -0.1594  0.0670 -0.6054
    1W        W59243   9.106  10.378   2.381 -0.1674 -0.2132 -0.1186
    1W        W59244   5.668  20.317   6.630  0.0844  0.3244  0.1578
    1W        W59245   7.840   8.627   6.219  0.3057 -0.0743 -0.1895
    1W        W59246  14.804  20.557   7.299 -0.1733 -0.2454 -0.0177
    1W        W59247   5.518   2.712   0.873 -0.0105  0.0260  0.2451
    1W        W59248  18.396   8.993   9.318  0.1779  0.0610  0.0074
    1W        W59249  22.857  19.671   0.857 -0.0629  0.2424  0.0379
    1W        W59250  23.463  13.580   2.030  0.0054  0.0828 -0.4366
    1W        W59251  16.896  24.630   7.592  0.0903  0.0192  0.0117
    1W        W59252  24.179  22.779   2.779 -0.0668 -0.0111 -0.0475
    1W        W59253   6.923   4.648   2.434  0.1289 -0.2230 -0.1275
    1W        W59254   0.471  13.414   3.182  0.0338 -0.1108 -0.2759
    1W        W59255   7.326  22.191   1.583  0.2520  0.0693 -0.0865
    1W        W59256  20.434  15.435   7.501  0.1866 -0.0105 -0.0628
    1W        W59257  20.419   1.544   1.786  0.2108 -0.0380 -0.0665
    1W        W59258  28.557   4.634   7.695 -0.1711 -0.2924  0.0315
    1W        W59259   4.197  22.948   6.506 -0.1215 -0.0044  0.0803
    1W        W59260  11.493  17.005   8.907  0.0216  0.2100  0.0742
    1W        W59261   1.377  17.399   2.178 -0.0117  0.2237 -0.2302
    1W        W59262  18.739  21.099   8.939  0.1528  0.1494 -0.1675
    1W        W59263  23.647  17.786   6.125 -0.1904  0.0049 -0.0793
    1W        W59264  11.163  17.171   1.904  0.0464 -0.1640  0.2202
    1W        W59265  12.491  15.797   1.378 -0.0709 -0.4515  0.1703
    1W        W59266  18.994   8.966   0.999  0.1291 -0.3057  0.0168
    1W        W59267  23.729   5.588   3.295  0.1760 -0.2544  0.0079
    1W        W59268  21.406  21.874   9.495 -0.5282 -0.0919  0.5323
    1W        W59269  14.708  20.729   1.211 -0.1732 -0.4133  0.0079
    1W        W59270   1.537  12.947   1.180 -0.0185 -0.0656  0.0731
    1W        W59271  13.950   2.122   3.884 -0.0583 -0.2438 -0.0383
    1W        W59272   5.670  16.867   7.956 -0.1299 -0.1371  0.0400
    1W        W59273  10.411   8.102   7.097  0.1871  0.0452  0.0876
    1W        W59274   5.857   7.255   1.708  0.0043  0.0000  0.0466
    1W        W59275   8.642  19.528   6.741  0.0002 -0.1599 -0.0826
    1W        W59276   3.452  13.888   1.149  0.2507 -0.1550  0.1717
    1W        W59277  17.875  17.038   6.519  0.0625  0.4065  0.3076
    1W        W59278  18.164  11.676   8.642  0.0867  0.2566  0.2235
    1W        W59279   5.925   8.313   0.639  0.4918  0.0242  0.0576
    1W        W59280  15.394   9.886   1.738  0.2947  0.0692  0.0107
    1W        W59281  13.716  26.877   0.957 -0.1411  0.0038 -0.1300
    1W        W59282  24.849  12.353   7.592 -0.0150 -0.3181  0.1145
    1W        W59283  28.663   3.268   2.407 -0.0728  0.2265  0.1102
    1W        W59284  13.967  15.310   2.020 -0.2269 -0.1367 -0.2047
    1W        W59285   4.208   3.401   0.312 -0.0572  0.0039  0.2915
    1W        W59286  26.334  12.056   7.551 -0.1494  0.1313 -0.1173
    1W        W59287  22.118  11.099   1.664 -0.0938 -0.0794 -0.2544
    1W        W59288  25.653  25.444   9.013 -0.2926 -0.1418 -0.2894
    1W        W59289   7.631  27.088   7.795  0.5790 -0.1967 -0.0202
    1W        W59290  25.636   9.967   0.424 -0.1205 -0.1233  0.0858
    1W        W59291  11.547  23.744   1.620 -0.0337 -0.2337 -0.1641
    1W        W59292  29.125  12.842   1.172 -0.0593 -0.1699  0.0675
    1W        W59293  25.125   5.206   1.365  0.0547  0.2629  0.2113
    1W        W59294  28.163   7.800   2.345 -0.1197 -0.0075  0.1938
    1W        W59295  12.245  27.831   2.234  0.2961  0.0752 -0.3038
    1W        W59296  22.112  24.765   1.054  0.2185 -0.3241 -0.1339
    1W        W59297  15.154  24.653   7.764 -0.5617  0.0747 -0.1918
    1W        W59298   6.274  26.536   8.447 -0.2038 -0.3369 -0.2091
    1W        W59299  29.751   5.169   1.736  0.2958  0.3091 -0.2409
    1W        W59300   6.002  12.148   7.804 -0.0652  0.0119  0.2292
    1W        W59301  12.203  21.799   0.672 -0.0341 -0.1641 -0.0826
    1W        W59302   5.681   0.766   7.441 -0.0771 -0.0245 -0.0223
    1W        W59303   9.186  10.769   9.431 -0.0106  0.0424 -0.0257
    1W        W59304  15.799  17.466   1.397  0.0960  0.1376  0.1457
    1W        W59305  19.498  14.502   7.863 -0.1982  0.2085  0.1210
    1W        W59306  24.536   3.419   8.863 -0.1694  0.0783 -0.0067
    1W        W59307   2.639  14.499   2.442  0.1399  0.1192  0.0132
    1W        W59308  25.623  13.893   1.125  0.2666 -0.0629 -0.1478
    1W        W59309   9.100  13.201   7.223  0.5439  0.5071  0.0686
    1W        W59310  26.244  17.496   2.955  0.0276 -0.0575  0.0093
    1W        W59311   6.898  21.290   2.285  0.2433  0.0821 -0.2151
    1W        W59312  18.626  19.966   0.254  0.1066  0.0692 -0.1421
    1W        W59313   2.324  26.570   6.977 -0.0096 -0.4302 -0.0049
    1W        W59314  10.149  20.312   7.164 -0.0822  0.1681 -0.0407
    1W        W59315   0.316  18.116   5.876 -0.0997 -0.1065 -0.1707
    1W        W59316   3.809   8.125   0.069  0.0368 -0.1063  0.4352
    1W        W59317  12.959   2.360   3.550 -0.1179  0.1047 -0.0829
    1W        W59318  26.197  14.079   0.144  0.1375 -0.1938  0.0091
    1W        W59319  11.716   3.179   2.974 -0.1977 -0.0500 -0.1281
    1W        W59320   0.293  17.594   7.619 -0.4848 -0.1792  0.2997
    1W        W59321  22.643  20.648   7.358 -0.2543 -0.2970 -0.1287
    1W        W59322  21.441  12.285   8.950  0.0272  0.0080  0.1242
    1W        W59323   2.002  11.346   1.712 -0.0476  0.0162 -0.1114
    1W        W59324  24.021  10.476   0.810  0.0768 -0.3383 -0.0044
    1W        W59325   1.217   9.480   8.590 -0.1973  0.0468  0.0881
    1W        W59326   3.185   7.654   1.895  0.1487  0.2981  0.0371
    1W        W59327  27.935   5.311   0.345  0.1436  0.0039  0.1466
    1W        W59328  15.529   1.895   2.733  0.1940  0.0549  0.0289
    1W        W59329   6.567   5.902   7.299  0.0240 -0.0015  0.0385
    1W        W59330  20.689  28.642   2.376 -0.1094 -0.1215 -0.3163
    1W        W59331   4.709  23.157   6.523  0.1312 -0.2480 -0.2173
    1W        W59332   1.456  13.741   7.670  0.0716 -0.2015 -0.0064
    1W        W59333  24.164  25.436   6.851  0.2219  0.0054 -0.1167
    1W        W59334  16.750  15.208   7.511  0.0546 -0.0132  0.3355
    1W        W59335  29.159   4.390   0.556  0.1417 -0.3596  0.0292
    1W        W59336  18.793   2.469   0.868 -0.0649  0.0741 -0.2473
    1W        W59337  24.236   0.752   2.798 -0.1007  0.0468  0.0732
    1W        W59338  23.663  19.755   2.117  0.2863 -0.1434  0.1588
    1W        W59339  24.222   9.052   9.471 -0.0611  0.0852  0.0154
    1W        W59340  11.274   4.151   9.116  0.1693 -0.0844  0.3659
    1W        W59341  16.541  26.460   8.612 -0.1000  0.0362  0.3175
    1W        W59342   8.253  13.190   6.944 -0.1723  0.0699  0.0556
    1W        W59343  18.150  18.817   8.822 -0.2673 -0.0449 -0.0330
    1W        W59344   0.905   5.146   9.029 -0.0995 -0.1690 -0.0975
    1W        W59345  15.464  12.886   0.720  0.0152  0.0500 -0.1272
    1W        W59346  19.002  18.716   1.768  0.1070  0.2024  0.2558
    1W        W59347  26.908  29.665   8.988 -0.2612 -0.0591 -0.3007
    1W        W59348  23.777   1.113   1.414 -0.0961  0.1837 -0.2595
    1W        W59349  11.428  15.418   6.500 -0.0474 -0.2960  0.1041
    1W        W59350   0.565   7.644   1.717 -0.2491  0.0601 -0.0431
    1W        W59351  27.325  28.526   7.254 -0.1565  0.0708 -0.0882
    1W        W59352  26.314   6.951   0.314  0.1867  0.1137 -0.3027
    1W        W59353  10.985   7.303   9.491 -0.3197 -0.4073 -0.0140
    1W        W59354  19.286  13.789   1.324  0.1813 -0.0003 -0.0260
    1W        W59355   5.190  21.794   6.224 -0.1126 -0.3377  0.0856
    1W        W59356   1.012  28.174   0.993 -0.1635  0.1173 -0.1621
    1W        W59357   7.018  18.704   1.724  0.0672 -0.3508  0.1400
    1W        W59358   0.668  24.930   6.815 -0.0975 -0.0800  0.1630
    1W        W59359  11.949  29.155   8.436 -0.1374 -0.0788 -0.1134
    1W        W59360  22.296   5.737   8.333 -0.0889 -0.0255 -0.0281
    1W        W59361  14.371  27.376   1.575 -0.5056 -0.2531 -0.0965
    1W        W59362  20.562  22.560   1.834  0.0792 -0.1829  0.1129
    1W        W59363  17.414   7.513   0.632 -0.0632  0.0682  0.2785
    1W        W59364  16.156   4.486   2.320 -0.2060  0.2358 -0.0194
    1W        W59365  15.610  17.998   6.364  0.0887  0.2727 -0.3784
    1W        W59366  27.505  25.176   2.844  0.0575 -0.2612 -0.1181
    1W        W59367  13.200  14.120   8.688 -0.0957 -0.3069 -0.1587
    1W        W59368  10.338  16.870   2.180  0.1281  0.2981  0.1058
    1W        W59369   0.312  12.179   1.106 -0.0011 -0.2491 -0.0239
    1W        W59370  25.804   6.114   2.214 -0.2023 -0.1466  0.3055
    1W        W59371  26.085  25.780   1.792 -0.1204  0.1277  0.1776
    1W        W59372   9.283   5.423   3.055 -0.2630 -0.2772 -0.3348
    1W        W59373  29.132  24.315   1.228  0.0439  0.1796 -0.0637
    1W        W59374  28.828  16.846   2.678  0.3235 -0.0156 -0.1365
    1W        W59375  13.065   2.458   7.849 -0.0373 -0.0194 -0.4058
    1W        W59376   6.909   2.290   3.249 -0.1045 -0.1383  0.2090
    1W        W59377  18.651  12.039   1.757 -0.1839 -0.4182  0.1850
    1W        W59378   9.310  22.880   1.845 -0.2239  0.3835 -0.2528
    1W        W59379  13.370  22.975   1.041  0.2578 -0.2853 -0.3277
    1W        W59380  29.729  22.839   7.567  0.1016 -0.3554 -0.4263
    1W        W59381  28.584  15.086   7.850  0.1478 -0.1095 -0.0033
    1W        W59382  24.984  15.014   0.154 -0.0116  0.0124 -0.0956
    1W        W59383  26.922   9.636   8.432 -0.1157 -0.2086 -0.1500
    1W        W59384   9.554  26.091   7.126 -0.0965  0.1246 -0.0653
    1W        W59385  27.001  17.458   1.165 -0.0037  0.1494  0.1016
    1W        W59386   6.278  26.674   1.473  0.0222 -0.0918  0.0509
    1W        W59387   8.874  11.641   1.217  0.0196 -0.0531  0.1901
    1W        W59388  11.664  25.208   8.389  0.0911  0.2208  0.2529
    1W        W59389  21.841  24.542   8.837  0.5288  0.1125 -0.2093
    1W        W59390   2.531   3.150   6.587  0.1210 -0.0804  0.2027
    1W        W59391   2.961   0.504   2.188 -0.0891 -0.0591 -0.2952
    1W        W59392  15.538  21.204   5.460  0.0396  0.2596  0.0941
    1W        W59393  23.995   7.044   0.741 -0.0363  0.0115 -0.1123
    1W        W59394  10.443  26.870   1.514 -0.0406 -0.0436 -0.0409
    1W        W59395  13.705  16.631   7.468 -0.2520  0.0691  0.5451
    1W        W59396  29.756   3.744   9.329  0.0885  0.1244 -0.0903
    1W        W59397   4.962  27.970   6.826 -0.1600  0.1571 -0.0709
    1W        W59398  17.931  21.403   7.913 -0.1848 -0.0528  0.0986
    1W        W59399   9.846   0.859   2.704 -0.0285 -0.3006 -0.0374
    1W        W59400  20.109  11.828   1.777 -0.1974  0.1130  0.0570
    1W        W59401  10.780  17.878   7.795 -0.2119 -0.2319  0.0278
    1W        W59402  22.075  28.551   2.628  0.0875  0.0015  0.0852
    1W        W59403  24.261   0.377   0.585  0.0676 -0.0921 -0.0470
    1W        W59404  28.469   2.249   3.217  0.1991  0.0376  0.1801
    1W        W59405   6.691   4.205   3.162  0.1542  0.2624  0.3894
    1W        W59406   8.102   9.883   0.657  0.1164 -0.0332 -0.3224
    1W        W59407   0.165  16.660   1.270 -0.1562 -0.0166  0.0562
    1W        W59408   6.938  18.863   8.576 -0.1936  0.0994  0.0842
    1W        W59409   8.003  26.941   5.644  0.1145  0.1000 -0.0965
    1W        W59410   1.615  19.945   0.153 -0.1347 -0.0459  0.1644
    1W        W59411  14.377  11.688   7.197  0.0138 -0.0199 -0.1895
    1W        W59412  16.604  24.670   1.188 -0.0901  0.0449 -0.1008
    1W        W59413  28.872  21.214   7.749 -0.1735 -0.0535  0.2988
    1W        W59414  20.958  24.074   0.600 -0.0120 -0.0553  0.0796
    1W        W59415  21.146  12.751   1.646 -0.2433  0.0329  0.0565
    1W        W59416  26.279   2.668   1.476 -0.2734  0.1664  0.2565
    1W        W59417   6.365   2.975   7.936 -0.0593  0.2811  0.1865
    1W        W59418  22.636   3.291   2.961  0.0479 -0.1066 -0.1008
    1W        W59419  15.562  20.714   5.694 -0.2302 -0.1105 -0.1524
    1W        W59420  27.875  26.328   1.467  0.0290  0.2845 -0.2663
    1W        W59421  28.915  19.131   2.331  0.3157  0.0447 -0.0733
    1W        W59422  13.514   4.440   8.960 -0.1760  0.0455  0.1336
    1W        W59423  21.107  11.455   0.891  0.4205 -0.0334 -0.0457
    1W        W59424   9.029  19.092   8.667  0.1831  0.0408 -0.2360
    1W        W59425   1.719   4.520   0.525 -0.2238 -0.0135  0.0381
    1W        W59426  24.794  25.140   1.922  0.3737 -0.2291  0.3638
    1W        W59427   1.665   2.688   3.317 -0.0477 -0.0059  0.0398
    1W        W59428   9.797  19.512   8.544 -0.2006 -0.0809  0.0157
    1W        W59429  29.852   4.680   7.267  0.0184 -0.2072 -0.0150
    1W        W59430  15.539  18.863   0.113 -0.0026 -0.0546  0.3922
    1W        W59431  16.759  24.606   9.455 -0.1799  0.3200  0.1616
    1W        W59432   5.244  28.779   6.676  0.1505 -0.0792 -0.5264
    1W        W59433   0.986   5.332   9.484  0.1199 -0.0305 -0.0469
    1W        W59434  24.419  25.313   0.009 -0.3156 -0.0918  0.2197
    1W        W59435  15.370  11.531   0.484  0.0242  0.2967 -0.2573
    1W        W59436  24.156  17.212   6.436  0.1050  0.0696 -0.0757
    1W        W59437   7.923  16.214   0.002 -0.1853 -0.0510 -0.1919
    1W        W59438  17.402  21.850   8.641 -0.0696  0.1690 -0.1283
    1W        W59439  29.083   9.176   8.767 -0.2906  0.2185  0.1269
    1W        W59440  26.339   1.106   8.576 -0.2719 -0.3575  0.1447
    1W        W59441  15.706  15.933   8.715  0.0433 -0.0529  0.2154
    1W        W59442   1.121  19.886   2.761 -0.0943  0.1362 -0.0849
    1W        W59443  19.418   8.145   2.789 -0.0022 -0.0623 -0.0718
    1W        W59444  25.412  24.365   2.902 -0.3523  0.1994  0.1672
    1W        W59445  28.584   8.428   7.662  0.0660  0.0550  0.0576
    1W        W59446  28.632  26.491   6.293  0.0455 -0.3507  0.1535
    1W        W59447   9.667   3.266   3.210 -0.3329 -0.0107  0.3207
    1W        W59448  26.237  13.977   8.722 -0.0401  0.0271  0.0817
    1W        W59449  25.509  17.040   9.063 -0.3846 -0.2053  0.1844
    1W        W59450  22.898  24.359   7.156 -0.0665 -0.3671  0.3723
    1W        W59451  11.411  19.632   0.497 -0.0226  0.4321 -0.0862
    1W        W59452   6.734   6.706   0.386 -0.0071 -0.0328 -0.0860
    1W        W59453   8.727  16.132   8.950  0.0054  0.0767  0.3840
    1W        W59454  26.646  15.478   0.558  0.1659 -0.2491 -0.4359
    1W        W59455   5.612  18.791   2.224  0.2566 -0.1673  0.0666
    1W        W59456  18.636  16.291   0.079  0.0535  0.1091  0.3318
    1W        W59457  26.929  22.304   8.563  0.2148 -0.0133 -0.0819
    1W        W59458  27.792  18.687   9.182  0.1316  0.1529 -0.0831
    1W        W59459  10.210   3.826   7.327 -0.1224 -0.0053  0.0373
    1W        W59460  29.637  15.348   8.796 -0.0421 -0.1333 -0.1863
    1W        W59461  26.580   9.236   9.421  0.1717  0.0485 -0.0113
    1W        W59462  11.337   2.614   0.950  0.2029  0.1398 -0.0387
    1W        W59463   1.471   9.771   0.624 -0.1518 -0.1014  0.1259
    1W        W59464  13.608   7.508   8.534 -0.2734  0.1734 -0.3009
    1W        W59465   5.780  27.339   0.389 -0.0982  0.0829  0.1135
    1W        W59466  20.332   9.719   0.824 -0.1020  0.1359 -0.1960
    1W        W59467   9.832  25.861   0.766 -0.1049 -0.0925  0.0245
    1W        W59468  13.944  18.330   1.697 -0.0440  0.0444  0.3403
    1W        W59469  13.895  17.043   1.537 -0.1155 -0.0935 -0.1166
    1W        W59470  25.602  27.215   1.051 -0.0285  0.2608 -0.1455
    1W        W59471   3.565  26.423   0.095 -0.2411  0.2821  0.1164
    1W        W59472  15.446  20.044   1.041 -0.0851 -0.0953 -0.1104
    1W        W59473  18.551  23.282   7.662 -0.0992  0.1915 -0.0759
    1W        W59474  20.727   2.946   8.724 -0.2691 -0.2228 -0.2201
    1W        W59475  26.178   7.451   6.934  0.0126  0.0826  0.3595
    1W        W59476  19.086  20.944   0.717  0.1474  0.2305 -0.3046
    1W        W59477  13.125   6.642   3.276  0.1286 -0.0581  0.4465
    1W        W59478   0.026  29.726   6.401 -0.1483  0.3380 -0.0818
    1W        W59479  27.050  27.694   8.114 -0.1613 -0.1902  0.1349
    1W        W59480  24.372   2.114   3.353  0.0803  0.0383  0.1294
    1W        W59481   0.618  21.930   7.720  0.1660  0.0709 -0.0900
    1W        W59482   1.196  23.467   8.227  0.0964 -0.1697  0.0744
    1W        W59483   8.410  22.499   0.970 -0.0704 -0.0255  0.0963
    1W        W59484  25.716   0.924   8.968  0.1385  0.0158  0.2640
    1W        W59485   8.062  22.098   6.511  0.1140  0.4043  0.1295
    1W        W59486  11.150  17.917   6.786  0.0701  0.2027  0.1046
    1W        W59487   7.777  22.575   1.267  0.0083 -0.1393  0.4380
    1W        W59488   1.433  25.890   1.545 -0.0765  0.2884  0.1495
    1W        W59489   0.791  28.206   7.576 -0.0786  0.0065 -0.1734
    1W        W59490  13.221   3.977   9.439  0.3305  0.1475 -0.0050
    1W        W59491   2.192  20.536   0.255 -0.2366  0.1495  0.2725
    1W        W59492  26.491  18.077   1.703 -0.3056 -0.2536 -0.3814
    1W        W59493  15.219  13.023   6.966  0.0955  0.0233  0.1554
    1W        W59494  23.457  14.190   0.653 -0.2716 -0.4177 -0.1049
    1W        W59495  14.807  24.963   7.562 -0.4721 -0.1772 -0.0484
    1W        W59496  12.738  24.200   6.826  0.1466 -0.0517 -0.3423
    1W        W59497  11.119   0.058   0.501  0.0632 -0.0061  0.4385
    1W        W59498   3.209   8.538   8.766  0.0601  0.0852 -0.1944
    1W        W59499  28.772   4.973   2.555 -0.1906  0.2370 -0.0562
    1W        W59500  20.860  29.196   8.101  0.1956 -0.2836 -0.1421
    1W        W59501  20.951  21.123   0.918 -0.2069 -0.0293 -0.2993
    1W        W59502   6.656  20.850   7.322 -0.1755  0.1387 -0.0599
    1W        W59503  19.610  27.805   9.459 -0.2518 -0.0136 -0.0230
    1W        W59504  10.527   3.509   2.594  0.2297 -0.1341 -0.2394
    1W        W59505  27.412  18.152   0.834 -0.0703  0.0110  0.1535
    1W        W59506  27.188  29.609   7.671 -0.2076  0.1458  0.0642
    1W        W59507   8.412  25.548   1.234 -0.0955 -0.0003  0.0277
    1W        W59508   1.048   7.060   2.212  0.1729 -0.0665 -0.0033
    1W        W59509  18.073  23.157   7.598 -0.2047  0.2914  0.3352
    1W        W59510   2.873  26.304   6.185  0.0108 -0.0760 -0.0622
    1W        W59511  29.062  14.075   6.245  0.0759  0.0518  0.3209
    1W        W59512  17.361   0.305   1.950 -0.0876  0.3106  0.0540
    1W        W59513   7.951   3.097   0.007 -0.3753  0.0199 -0.1439
    1W        W59514  13.205  21.680   5.736  0.1805  0.0246 -0.0708
    1W        W59515   6.105  24.215   7.774  0.0718 -0.1583  0.3618
    1W        W59516   9.510  25.650   7.007 -0.1717  0.2327 -0.2981
    1W        W59517  23.715   5.852   9.279  0.0588  0.0661 -0.2011
    1W        W59518  10.344  12.224   2.742  0.1674  0.1152  0.1292
    1W        W59519  26.913  20.370   9.235  0.0368  0.0558 -0.0287
    1W        W59520  10.205   2.494   3.382  0.3534  0.4180 -0.2412
    1W        W59521  12.853  12.922   8.458 -0.1974 -0.2224 -0.0721
    1W        W59522  27.115   1.574   8.851 -0.1447 -0.1292 -0.0489
    1W        W59523  27.497   7.413   8.436  0.1552  0.2032 -0.2138
    1W        W59524  25.037  24.324   7.755 -0.0765  0.1516 -0.2927
    1W        W59525  22.497  27.079   0.843 -0.1678  0.0142  0.2751
    1W        W59526  19.856   8.468   2.756  0.2424  0.0038 -0.0735
    1W        W59527  27.943   1.267   3.034  0.0061  0.1906 -0.3226
    1W        W59528  27.909  19.559   7.173  0.0172 -0.0786  0.2399
    1W        W59529   4.701  12.484   0.122  0.1902 -0.0507  0.3797
    1W        W59530   9.319  29.215   1.305 -0.1240  0.1164 -0.3160
    1W        W59531   6.918  22.783   7.423  0.1659 -0.1111 -0.1815
    1W        W59532   7.536  24.847   8.291 -0.3015  0.0122 -0.2116
    1W        W59533  28.166  29.726   0.940  0.1874  0.3487  0.0422
    1W        W59534  22.589   6.611   0.189  0.0206  0.1634  0.1275
    1W        W59535   4.036  28.692   1.476 -0.0511 -0.1630 -0.2800
    1W        W59536  25.738  22.746   7.688 -0.2590  0.0343  0.1903
    1W        W59537  26.593   9.608   1.594  0.1360  0.2159 -0.1254
    1W        W59538   6.832   2.365   0.868 -0.0664  0.0031  0.1340
    1W        W59539   6.749  11.438   8.611  0.0286  0.2802 -0.1970
    1W        W59540  27.499  29.765   8.116 -0.2126  0.2291  0.0705
    1W        W59541  13.572   9.157   0.392  0.0901  0.1695  0.3322
    1W        W59542  21.909  21.419   8.157  0.0464 -0.1499 -0.0473
    1W        W59543  13.047   0.434   7.825  0.0773 -0.2457  0.2461
    1W        W59544   1.137  24.858   9.089 -0.2594  0.2506 -0.2501
    1W        W59545  15.664   9.016   0.298 -0.0813  0.1597 -0.2157
    1W        W59546  10.338   1.459   0.362 -0.0244 -0.3452 -0.0263
    1W        W59547  26.519  27.268   9.024 -0.2157 -0.0491  0.2572
    1W        W59548  15.016   5.589   3.807 -0.3951 -0.2710 -0.1625
    1W        W59549   5.055   2.766   9.067 -0.0518  0.1584 -0.2986
    1W        W59550   6.965   0.593   8.050 -0.2426 -0.1009  0.0585
    1W        W59551  15.053  18.568   7.336  0.1595 -0.0871 -0.1346
    1W        W59552   7.948  29.051   2.769 -0.1916  0.1019  0.1039
    1W        W59553   8.899  28.459   8.196 -0.1814 -0.0195  0.0969
    1W        W59554   7.448  21.722   5.527  0.0552 -0.0199  0.1861
    1W        W59555  20.861   2.505   8.976 -0.0532  0.0710  0.0922
    1W        W59556   5.824   4.217   8.360  0.1431  0.1968 -0.1017
    1W        W59557  16.118   1.587   8.294 -0.0988  0.0020  0.0697
    1W        W59558  27.447  15.320   2.130  0.1017  0.1027 -0.1319
    1W        W59559  16.103  18.732   9.149  0.1036  0.0541  0.0972
    1W        W59560  14.756  21.345   0.542 -0.0028  0.0427 -0.2169
    1W        W59561  21.891  10.762   7.641  0.0681 -0.0245 -0.1223
    1W        W59562  10.146   2.956   0.920 -0.2634 -0.2219  0.3411
    1W        W59563  22.145   9.141   0.894  0.0025 -0.1230  0.2281
    1W        W59564  19.656   1.539   2.472 -0.0374  0.0272 -0.0972
    1W        W59565   9.463   5.374   1.847  0.0341  0.0164  0.1200
    1W        W59566  12.597   9.350   1.212  0.0428  0.0508 -0.1125
    1W        W59567   1.863  26.964   8.470 -0.0511  0.0824  0.2270
    1W        W59568  11.081  25.774   8.634  0.0838 -0.0082  0.2724
    1W        W59569   3.904  17.580   7.380  0.0313  0.0047  0.0372
    1W        W59570   4.352  10.457   7.962  0.1068  0.1174 -0.0086
    1W        W59571   2.380  14.308   7.246  0.2861 -0.2903 -0.1673
    1W        W59572  25.575   2.406   9.238 -0.1666  0.1456  0.0680
    1W        W59573   6.652  15.391   9.353  0.0891 -0.0212  0.0602
    1W        W59574   7.140   4.380   1.523 -0.0534  0.0193  0.0594
    1W        W59575  25.188  11.700   8.538 -0.2499 -0.0141 -0.2422
    1W        W59576   5.793  15.476   7.691  0.0037 -0.4259 -0.1063
    1W        W59577  24.242  19.581   6.651  0.1726 -0.2447  0.0409
    1W        W59578   4.933  20.103   8.604 -0.0580 -0.1766  0.0538
    1W        W59579   8.948  15.117   6.330  0.0531  0.0801 -0.0025
    1W        W59580  25.498  22.933   0.595  0.2837  0.2034 -0.0150
    1W        W59581   8.663  18.138   9.303 -0.1780 -0.1366 -0.1703
    1W        W59582  22.504   5.616   0.310  0.3254 -0.3213 -0.2703
    1W        W59583   9.802  17.493   0.321  0.1818 -0.1184 -0.2522
    1W        W59584  13.783  24.804   0.477 -0.1284 -0.0275  0.0823
    1W        W59585  13.066  26.764   2.640  0.1954 -0.1918 -0.0430
    1W        W59586  15.860  26.362   0.823 -0.1753  0.1295  0.0151
    1W        W59587   5.080  11.668   2.828  0.2855  0.0062 -0.3816
    1W        W59588   7.482   6.236   7.198 -0.0986  0.0377 -0.1970
    1W        W59589  13.197  25.542   0.908 -0.0369 -0.3602 -0.0413
    1W        W59590   5.296  18.549   6.870 -0.4789  0.5157 -0.0573
    1W        W59591  11.502  12.356   1.601 -0.1102 -0.1882 -0.0003
    1W        W59592  27.627   8.205   8.439 -0.1502  0.1799 -0.0720
    1W        W59593  28.550  25.468   0.267  0.2498 -0.3248 -0.0338
    1W        W59594  29.323  15.599   7.079 -0.1143 -0.0888  0.1716
    1W        W59595   7.554  28.986   7.106  0.0169  0.1414  0.0861
    1W        W59596  28.415   4.750   8.460  0.0904  0.0769  0.0946
    1W        W59597   3.724  13.799   0.707  0.1863  0.0937 -0.0538
    1W        W59598   7.183  13.894   7.903 -0.3913 -0.0338  0.1035
    1W        W59599   8.763   4.564   1.643 -0.0637  0.0790 -0.3232
    1W        W59600   3.386   8.167   9.034 -0.3013  0.0116 -0.0155
    1W        W59601   0.288   1.132   2.770  0.0408 -0.4532  0.0127
    1W        W59602   9.671   1.329   0.387 -0.0552  0.0791  0.1492
    1W        W59603  10.804  27.334   9.054 -0.0736  0.3447  0.0030
    1W        W59604  21.735  18.511   7.264  0.0044 -0.2365 -0.0352
    1W        W59605  13.777  27.045   6.481  0.0519 -0.0126  0.2617
    1W        W59606  21.792  18.988   0.281 -0.0768  0.1084 -0.2077
    1W        W59607   8.711   6.344   1.919  0.0974 -0.0886  0.2578
    1W        W59608   7.572  15.449   6.309 -0.3349 -0.2751  0.0061
    1W        W59609  13.773   2.317   3.395  0.0350 -0.1841 -0.0970
    1W        W59610   7.517  27.019   7.232  0.2637  0.1407  0.0513
    1W        W59611  18.483   3.524   1.325  0.1312 -0.1430  0.1339
    1W        W59612   9.184  11.809   6.900  0.0033  0.0819  0.2233
    1W        W59613  10.034  17.503   6.675  0.1040  0.0129 -0.1664
    1W        W59614   5.259   4.537   0.608 -0.0716  0.1509  0.1210
    1W        W59615  20.750   9.780   1.979  0.1342  0.0374  0.1115
    1W        W59616  10.898   2.633   1.206 -0.2083  0.1506 -0.1987
    1W        W59617  11.154   6.661   0.865  0.1322 -0.2883  0.0898
    1W        W59618   1.327   7.629   1.618 -0.0872  0.1239 -0.0085
    1W        W59619   5.327   5.661   1.113 -0.2021  0.0208 -0.2080
    1W        W59620  16.700  25.058   6.318 -0.3830  0.0199 -0.1132
    1W        W59621   8.481   0.690   0.832  0.0039 -0.0712  0.0880
    1W        W59622  23.045   8.297   3.560  0.1380  0.2928 -0.2612
    1W        W59623  17.522   0.450   3.484  0.1906 -0.2690 -0.0305
    1W        W59624  19.163  27.568   7.251 -0.4437  0.1035 -0.1486
    1W        W59625  25.591  19.882   1.253  0.0692 -0.0289 -0.1150
    1W        W59626  17.759  21.372   9.219  0.1047 -0.0468  0.0854
    1W        W59627   1.498  23.784   8.976 -0.1157 -0.3774  0.0346
    1W        W59628  12.174  27.023   2.628  0.1083  0.1913 -0.3970
    1W        W59629  14.538   0.312   3.113  0.0769  0.2936  0.1294
    1W        W59630   0.626  25.557   1.768 -0.1047 -0.2795  0.0275
    1W        W59631  20.380   1.104   0.193  0.2816  0.1604 -0.2331
    1W        W59632   3.694  19.878   9.361 -0.2995 -0.0547 -0.2330
    1W        W59633  14.071  24.712   7.404  0.0098 -0.0524 -0.2704
    1W        W59634   5.683   7.628   2.120 -0.1838 -0.1246  0.1087
    1W        W59635   4.849   0.768   1.410  0.0184  0.0609 -0.2004
    1W        W59636  20.929  16.548   7.465  0.2190  0.3104  0.0563
    1W        W59637  13.291  10.441   0.303 -0.0133  0.3705  0.1874
    1W        W59638   9.761  13.454   2.754 -0.2750 -0.1890  0.0028
    1W        W59639  10.533   7.459   7.858  0.1874 -0.1179 -0.3258
    1W        W59640  27.668  27.551   1.015  0.0829 -0.1262  0.1022
    1W        W59641  25.076   0.366   0.282  0.0184 -0.0243  0.0044
    1W        W59642   5.229  28.055   9.481  0.1152  0.0252 -0.1274
    1W        W59643  28.932  11.209   2.025  0.2760 -0.0245 -0.0704
    1W        W59644   5.182  21.014   8.933  0.1790 -0.1313 -0.1321
    1W        W59645  11.177  21.129   8.110 -0.0494  0.1808  0.1023
    1W        W59646  29.771  10.820   8.068 -0.1477  0.1952  0.1388
    1W        W59647   5.200  13.733   0.918  0.2262 -0.1327 -0.0681
    1W        W59648  28.046   6.984   2.038  0.1378 -0.2809 -0.2733
    1W        W59649  26.891   8.266   1.974  0.0742 -0.0526 -0.2957
    1W        W59650  16.820  20.776   7.738  0.0383 -0.1873  0.1675
    1W        W59651  17.770  19.023   8.505 -0.1827  0.0423  0.1928
    1W        W59652  25.898   0.956   3.691 -0.0437  0.2235 -0.0938
    1W        W59653   1.558  13.485   8.951  0.2108 -0.0078 -0.1287
    1W        W59654   3.020  19.387   2.460 -0.0071 -0.1347 -0.0583
    1W        W59655  28.245   6.791   7.772  0.3484 -0.1803 -0.1668
    1W        W59656   7.762   5.866   9.175 -0.0938  0.2849 -0.1263
    1W        W59657  19.546   2.411   2.275 -0.0272 -0.2112 -0.1989
    1W        W59658  27.894   4.578   2.122 -0.0929 -0.2041  0.0081
    1W        W59659  29.333   9.092   0.921 -0.1665 -0.1371  0.0568
    1W        W59660   4.054  15.112   8.382  0.0893 -0.2386  0.1128
    1W        W59661  18.193  11.642   7.606  0.1029 -0.0513  0.0344
    1W        W59662   2.627   4.938   2.533  0.2303  0.0300 -0.1296
    1W        W59663   2.310  27.423   9.222 -0.0955 -0.1707  0.2772
    1W        W59664  15.305  20.967   6.070 -0.1390 -0.2750 -0.3175
    1W        W59665   7.681   0.619   7.062 -0.1224  0.0202  0.1823
    1W        W59666   9.253   2.152   0.276 -0.0752  0.4038 -0.1598
    1W        W59667   6.084  15.746   5.772  0.4196 -0.0439  0.1450
    1W        W59668   4.371   3.148   6.986  0.0031  0.4488  0.6492
    1W        W59669  13.585   4.593   1.028 -0.0665  0.3178 -0.2098
    1W        W59670  23.883  21.519   7.009 -0.1049  0.0309  0.1021
    1W        W59671  24.635   2.058   7.649  0.0002  0.3306  0.0715
    1W        W59672   3.046   6.783   8.538 -0.2140  0.0546  0.2737
    1W        W59673  23.748  10.667   1.187 -0.1663 -0.1079 -0.2467
    1W        W59674  17.798   0.597   2.278  0.1150  0.3002  0.2429
    1W        W59675   6.434   8.702   6.727 -0.0131  0.1191 -0.2456
    1W        W59676   7.985  10.278   7.747  0.3105 -0.1621 -0.2208
    1W        W59677   3.733  18.131   9.296  0.2233 -0.0118  0.3898
    1W        W59678  17.131  15.633   1.063 -0.2304 -0.0733 -0.0488
    1W        W59679   5.929  12.501   9.094 -0.1779 -0.1822  0.3022
    1W        W59680   3.430  15.678   8.813  0.1397 -0.1003  0.3690
    1W        W59681  19.591   2.649   3.242  0.0422 -0.2456 -0.0879
    1W        W59682  26.489   4.679   1.256  0.1235 -0.2991  0.2016
    1W        W59683   5.957  13.360   2.108  0.3106 -0.0255 -0.4393
    1W        W59684  11.086  15.208   0.076  0.0090  0.0729 -0.3479
    1W        W59685  12.126  17.937   0.055 -0.1218 -0.0613 -0.5829
    1W        W59686  24.914   8.156   2.710  0.1171 -0.0481 -0.0231
    1W        W59687   6.992  26.081   0.479 -0.1179 -0.2199  0.2235
    1W        W59688  24.380  29.040   2.337  0.1236 -0.2245 -0.3235
    1W        W59689   6.885  26.325   8.574  0.2257  0.0053 -0.0888
    1W        W59690  19.384   9.762   8.411 -0.1154  0.0304  0.0364
    1W        W59691   7.967  28.557   1.486 -0.0631 -0.1080 -0.2499
    1W        W59692  10.203   2.817   8.235  0.2174 -0.1482  0.0900
    1W        W59693  15.209  17.801   8.941  0.3540 -0.0003  0.0617
    1W        W59694  23.998  24.872   8.439  0.0151 -0.3668 -0.0087
    1W        W59695  10.078  22.790   0.937  0.0726 -0.0457  0.2558
    1W        W59696  21.194   5.235   3.588 -0.1746  0.0082 -0.0016
    1W        W59697   1.518  29.547   8.385  0.0304  0.0427 -0.0192
    1W        W59698  18.856   5.855   1.651  0.0233 -0.0462 -0.2513
    1W        W59699   8.341  17.962   8.975  0.0332 -0.2246 -0.1460
    1W        W59700  21.004  21.483   8.127 -0.0754  0.1725 -0.3770
    1W        W59701  24.032  27.740   0.130 -0.1816 -0.0564  0.1632
    1W        W59702  22.128  17.736   0.836  0.1441  0.0705  0.2404
    1W        W59703   0.716  29.818   7.788  0.0325  0.2252  0.0354
    1W        W59704  25.563   8.852   8.531  0.1221 -0.0600  0.0544
    1W        W59705  19.378  24.188   7.634  0.1841 -0.1045 -0.2292
    1W        W59706  17.574  12.212   0.574  0.0133 -0.0998 -0.1459
    1W        W59707  24.458  29.306   9.396  0.2604  0.0875  0.1393
    1W        W59708  26.975  10.596   1.491 -0.1284 -0.1599 -0.2038
    1W        W59709   4.821   2.284   9.069 -0.0399 -0.0469 -0.5000
    1W        W59710   6.728  24.548   7.576 -0.0733 -0.0207 -0.0068
    1W        W59711  18.181  28.087   1.113  0.2806  0.2029 -0.5392
    1W        W59712  27.406   0.460   9.314 -0.1871  0.2408 -0.1065
    1W        W59713  25.679  16.901   8.097  0.1791 -0.1388 -0.1185
    1W        W59714  20.728   1.973   8.178  0.2980  0.1294  0.0372
    1W        W59715  25.692  20.028   1.723  0.0672 -0.0206  0.2250
    1W        W59716   3.184  24.766   6.798 -0.5551  0.0856 -0.1774
    1W        W59717  28.727  13.842   8.030  0.1654 -0.1178  0.2257
    1W        W59718  12.891   9.775   2.495 -0.0574  0.0393  0.0700
    1W        W59719   7.623  19.510   7.450  0.2482 -0.1868 -0.2308
    1W        W59720   7.472  26.942   0.360 -0.3476  0.2820  0.2844
    1W        W59721  25.796   9.926   2.629 -0.1722 -0.1377 -0.5512
    1W        W59722   5.985  23.949   6.176 -0.0513  0.0495  0.1943
    1W        W59723  22.583   3.403   0.166  0.0800  0.1243  0.1740
    1W        W59724  27.938   2.772   7.485 -0.1121  0.2118 -0.1710
    1W        W59725  13.193   0.919   7.812 -0.0856 -0.3129 -0.1315
    1W        W59726   9.582  23.938   7.160  0.0659  0.1945  0.0474
    1W        W59727  25.398   3.799   8.010 -0.2805  0.4430  0.2415
    1W        W59728  24.224  29.770   0.136  0.3943 -0.0636 -0.3203
    1W        W59729   6.770  20.726   1.465  0.2126 -0.0929  0.0009
    1W        W59730  10.059   3.324   8.540 -0.1822 -0.2233 -0.2100
    1W        W59731  17.442  26.282   6.534  0.3534  0.3453  0.3126
    1W        W59732  29.153  10.672   0.882 -0.1854 -0.0126  0.2051
    1W        W59733  21.118  15.084   0.686 -0.2238 -0.2605  0.0219
    1W        W59734   3.328  16.267   6.321  0.0643 -0.1834  0.2265
    1W        W59735  23.180  24.581   7.735 -0.1427  0.1867  0.0673
    1W        W59736   0.336  19.753   1.822 -0.1046  0.2518 -0.1074
    1W        W59737  22.620   7.616   0.015  0.2336  0.1647 -0.0776
    1W        W59738  28.639  28.987   0.461 -0.0305 -0.0732  0.0062
    1W        W59739  10.612   1.829   0.558 -0.0787  0.0444 -0.0938
    1W        W59740  11.913   1.022   1.452 -0.0035 -0.0180  0.1739
    1W        W59741  18.612  16.867   9.150  0.2023  0.1499 -0.0186
    1W        W59742  24.650   2.223   6.924 -0.1675  0.0847  0.0008
    1W        W59743  16.996  22.599   0.583  0.1713  0.2697 -0.2378
    1W        W59744   4.560  17.497   8.671 -0.2749  0.0730 -0.1060
    1W        W59745   0.108  11.518   6.720  0.2787 -0.1525  0.0740
    1W        W59746  25.907  17.639   7.232 -0.4076 -0.1649  0.5525
    1W        W59747  10.844  29.315   2.220 -0.2219  0.1180 -0.1478
    1W        W59748  16.777  16.716   0.261 -0.0954  0.1915  0.0487
    1W        W59749   6.619   8.732   0.317  0.1875  0.3297  0.0663
    1W        W59750   3.437  17.549   6.434  0.0877 -0.0373  0.1292
    1W        W59751   4.338  11.905   5.770  0.0441  0.0683  0.1197
    1W        W59752  25.070  23.431   2.848 -0.0152 -0.0657  0.1540
    1W        W59753  21.144   9.846   2.223 -0.1183 -0.0894  0.1176
    1W        W59754   2.030   2.913   0.772 -0.2381  0.5092  0.0578
    1W        W59755   9.973  26.467   7.166 -0.0969  0.2203 -0.2290
    1W        W59756   8.862  15.910   9.529  0.0383  0.2376  0.0203
    1W        W59757  11.685  28.348   2.513 -0.3641  0.0440 -0.1054
    1W        W59758  29.816  18.458   6.082  0.0354 -0.0827 -0.2755
    1W        W59759   7.705  19.520   1.267 -0.0752 -0.2210 -0.1371
    1W        W59760  10.324   7.313   2.607  0.2033 -0.0031 -0.0634
    1W        W59761  29.722   6.054   7.630  0.0001  0.0738 -0.2689
    1W        W59762  16.749   4.644   3.600 -0.1603 -0.0958  0.2255
    1W        W59763  26.586  16.261   9.489  0.0772 -0.1714 -0.0586
    1W        W59764  23.220  14.028   9.423 -0.0162  0.0220 -0.2124
    1W        W59765  23.470  27.128   6.851  0.1746  0.0254 -0.0826
    1W        W59766  29.087  17.266   0.062  0.0474  0.3529  0.2701
    1W        W59767   6.099   5.515   0.570 -0.0027 -0.2960  0.0506
    1W        W59768  10.776  21.236   7.803 -0.0245  0.2593 -0.2328
    1W        W59769   6.275  24.657   9.056 -0.0132 -0.1477 -0.2268
    1W        W59770  27.796  17.943   7.409 -0.1806  0.0312 -0.0258
    1W        W59771   9.175   9.008   6.871  0.2625 -0.2271 -0.1167
    1W        W59772  19.305  19.370   1.581 -0.1237 -0.1582  0.3775
    1W        W59773  14.829  19.208   6.183 -0.0825 -0.0363  0.0853
    1W        W59774  24.514   9.036   2.694  0.0739  0.0218  0.3416
    1W        W59775   6.750  14.743   9.476  0.1688  0.0580 -0.2076
    1W        W59776  14.670  12.075   7.327  0.0264 -0.1507  0.1194
    1W        W59777   3.201  10.525   9.440 -0.4213  0.4592  0.2584
    1W        W59778  21.055   5.285   0.392 -0.3081 -0.0524 -0.1824
    1W        W59779  18.916   9.871   2.358  0.0613 -0.0316  0.0821
    1W        W59780  25.572  18.471   2.039 -0.0499  0.0685 -0.0769
    1W        W59781   1.346   6.012   7.539  0.1423  0.2771 -0.0452
    1W        W59782  10.373  23.794   7.122  0.0642  0.2490 -0.1279
    1W        W59783  14.477   4.039   4.429 -0.3497 -0.2375  0.0783
    1W        W59784  27.129  13.985   2.898  0.1269  0.0128  0.1674
    1W        W59785   5.867  16.320   2.881  0.2796 -0.1552  0.1227
    1W        W59786  19.972  24.181   1.173 -0.1136 -0.0073 -0.5169
    1W        W59787  23.010  16.312   1.758  0.1467 -0.0554 -0.1965
    1W        W59788  17.888   7.385   1.739 -0.0441  0.1297  0.3673
    1W        W59789   4.815  15.236   2.096 -0.4122 -0.1938  0.1475
    1W        W59790  17.117  20.094   6.991  0.2753  0.0929  0.1892
    1W        W59791  22.839  15.928   1.328 -0.0819  0.3044 -0.1889
    1W        W59792  26.139  16.748   1.885 -0.1109  0.1045  0.0394
    1W        W59793  21.447  16.552   8.197  0.1819  0.0287  0.1166
    1W        W59794  19.181  24.481   0.073  0.1858 -0.1483 -0.2105
    1W        W59795  15.651   1.156   1.478 -0.1439 -0.0413  0.1025
    1W        W59796  15.574  29.198   9.078 -0.2982 -0.1749  0.1097
    1W        W59797  29.835  11.315   7.157  0.0356  0.0800  0.0426
    1W        W59798  18.155  10.058   2.729  0.2193 -0.2532  0.0016
    1W        W59799   3.172  23.817   0.412 -0.2959  0.0114 -0.0991
    1W        W59800  12.162   5.600   7.729  0.1718  0.0426  0.0228
    1W        W59801   6.904  23.690   2.345  0.2437 -0.0367 -0.2145
    1W        W59802  20.627   2.885   2.856 -0.2017  0.1375  0.0574
    1W        W59803  14.374   7.623   1.827 -0.2030 -0.3602 -0.0185
    1W        W59804  12.221  12.682   7.309 -0.2652 -0.2890  0.0762
    1W        W59805  28.918  12.973   6.267 -0.2181 -0.1318 -0.1961
    1W        W59806  25.332  13.855   9.052 -0.1106 -0.1746  0.0370
    1W        W59807  10.325   7.261   0.666  0.0550 -0.0495 -0.1667
    1W        W59808   4.049   6.095   1.399 -0.0210  0.2314 -0.1980
    1W        W59809  11.390  11.884   1.814 -0.0642  0.0742 -0.2075
    1W        W59810  19.372   8.815   1.421 -0.0720 -0.1170 -0.0077
    1W        W59811  10.864  14.516   5.516 -0.0401 -0.3866 -0.0666
    1W        W59812   7.967  12.766   7.857  0.2385 -0.4102  0.1836
    1W        W59813  21.920  17.505   7.303 -0.0157  0.1987  0.0287
    1W        W59814  18.963  28.425   1.698  0.3514  0.0219  0.0335
    1W        W59815  25.778  25.340   7.856  0.2392 -0.1192  0.0048
    1W        W59816  24.439  10.884   8.469  0.0038 -0.0375  0.1725
    1W        W59817  24.744   7.609   3.280 -0.1598  0.2162  0.0673
    1W        W59818   9.330  28.952   9.479  0.3414 -0.3818 -0.1045
    1W        W59819   7.146  11.498   0.576 -0.2308 -0.0611  0.1810
    1W        W59820  28.636  24.437   1.193  0.0261 -0.2381  0.0229
    1W        W59821  28.858  11.287   0.436  0.1454  0.2080  0.0143
    1W        W59822  23.095  23.962   2.178  0.0834  0.1299 -0.1828
    1W        W59823  17.210   5.572   2.147  0.3732 -0.1651  0.1419
    1W        W59824  17.818  29.114   3.188  0.2986 -0.0475 -0.1574
    1W        W59825  10.177   2.900   3.136 -0.0200  0.0286  0.2052
    1W        W59826  10.844   4.563   1.275 -0.2149  0.0734  0.3225
    1W        W59827   1.177   1.251   8.222  0.0155  0.2738 -0.0443
    1W        W59828   4.816   0.359   7.586  0.2654 -0.0464 -0.0805
    1W        W59829   6.266   0.243   6.683  0.0027  0.1248  0.0901
    1W        W59830  29.601  21.648   8.394  0.1796 -0.0770  0.4444
    1W        W59831  18.107   5.111   1.538 -0.1897  0.2400 -0.2671
    1W        W59832  20.537  15.366   8.496 -0.1523 -0.2500  0.0743
    1W        W59833   8.202   7.002   8.362 -0.1340 -0.2642  0.0809
    1W        W59834  26.976   4.859   0.509  0.0672  0.0685  0.1734
    1W        W59835  25.561  21.567   0.937  0.1861  0.0834  0.1575
    1W        W59836  26.955  22.720   8.965 -0.0584 -0.0598 -0.1034
    1W        W59837   2.169   4.672   7.092  0.2156 -0.2906  0.0888
    1W        W59838  23.712  10.656   7.797  0.0652  0.1274  0.1848
    1W        W59839  19.671   1.044   3.202  0.1985 -0.3313  0.2589
    1W        W59840  23.094   1.851   7.094  0.0360 -0.2005 -0.0659
    1W        W59841   9.783  24.023   8.269 -0.2444 -0.4516  0.0114
    1W        W59842   1.666  27.545   0.456  0.1084  0.0352  0.1597
    1W        W59843  18.642  20.920   8.167 -0.3420 -0.0818  0.1409
    1W        W59844  23.581  17.312   2.575 -0.2449  0.0767 -0.1205
    1W        W59845  13.316  18.455   7.852  0.0119  0.0604 -0.2439
    1W        W59846   3.929  15.596   5.788  0.0210 -0.3356  0.1139
    1W        W59847  26.474   2.618   9.251  0.4046  0.1648  0.2594
    1W        W59848  13.707   1.888   3.075 -0.1110  0.1139  0.3103
    1W        W59849  10.183   8.880   1.159 -0.2313  0.2399  0.1227
    1W        W59850  28.020  28.929   6.860  0.3093 -0.4994  0.1071
    1W        W59851   2.059   9.821   7.004 -0.2411  0.0127 -0.0253
    1W        W59852  24.010  25.262   2.723  0.0169  0.0685 -0.1297
    1W        W59853  28.218  23.781   7.470  0.2119  0.0591 -0.2397
    1W        W59854  23.878  25.665   2.886 -0.0165  0.0041 -0.1598
    1W        W59855  17.056  14.778   1.789  0.0912 -0.1410 -0.0301
    1W        W59856  12.989  16.229   7.681  0.0221 -0.0341 -0.1952
    1W        W59857  10.447  13.815   7.275  0.6235  0.0186  0.2430
    1W        W59858   3.173   1.439   2.653 -0.3355 -0.2246 -0.1754
    1W        W59859  11.420  19.145   7.851 -0.0030  0.1262 -0.1110
    1W        W59860  10.047   3.819   8.424  0.0070  0.2212  0.4049
    1W        W59861   6.029  22.573   7.589 -0.0530 -0.0521  0.2599
    1W        W59862  25.762  18.025   1.772  0.0517  0.0439  0.2911
    1W        W59863  29.535  21.203   7.372  0.2187 -0.1550 -0.2220
    1W        W59864   0.700  27.716   5.987  0.1155 -0.2240 -0.0202
    1W        W59865  23.639  12.264   0.964 -0.0563  0.0866 -0.1425
    1W        W59866  16.432  14.877   0.085  0.1622  0.1739  0.1470
    1W        W59867   5.547   0.179   6.852 -0.1301  0.0148 -0.3152
    1W        W59868  26.883  28.511   7.595 -0.1237 -0.3360 -0.1470
    1W        W59869  13.484  17.559   0.007  0.0422  0.1152 -0.0564
    1W        W59870  19.821  17.174   1.547  0.3092 -0.2941 -0.2315
    1W        W59871   5.631   2.108   1.433  0.1115  0.0836  0.1753
    1W        W59872   6.075   6.720   2.154 -0.1763  0.0188 -0.0106
    1W        W59873  16.451  27.495   0.615  0.1046 -0.1615  0.6913
    1W        W59874   7.000  23.643   9.014 -0.1110  0.3089  0.2506
    1W        W59875  23.239  11.892   1.634  0.2235 -0.1042 -0.0835
    1W        W59876  15.866  20.012   1.308 -0.2002 -0.2817  0.2335
    1W        W59877   7.915   6.261   7.450  0.2067  0.1417 -0.2793
    1W        W59878  18.587  16.560   2.439 -0.1246  0.3716  0.0178
    1W        W59879  26.730   5.541   8.364  0.0113  0.1308 -0.3433
    1W        W59880  14.338  21.644   0.945 -0.1036  0.2708 -0.2646
    1W        W59881  11.107  29.407   2.667  0.3515 -0.2465 -0.0348
    1W        W59882   4.928  20.206   0.145 -0.1014 -0.0386 -0.4107
    1W        W59883  19.453   5.126   2.231 -0.0301  0.2890 -0.2922
    1W        W59884  29.690   5.429   2.161  0.0065  0.1352 -0.1651
    1W        W59885  25.908   0.303   0.316  0.1784  0.1297  0.2539
    1W        W59886  16.011   2.252   1.611  0.0668 -0.1262  0.0781
    1W        W59887  19.547   9.518   9.470  0.3998  0.0114  0.0999
    1W        W59888   8.113   6.640   0.845  0.2293  0.0410  0.2026
    1W        W59889  12.974  29.816   2.815  0.1607  0.1166 -0.3322
    1W        W59890  21.773  13.718   1.684  0.0220 -0.1907  0.1003
    1W        W59891  13.285   9.069   8.704  0.0676 -0.0416 -0.1093
    1W        W59892   5.825   6.903   0.851 -0.0116  0.0970 -0.2226
    1W        W59893  13.695  26.746   5.789  0.2244 -0.2337 -0.1166
    1W        W59894   4.209  10.155   9.433 -0.1083  0.1373  0.1426
    1W        W59895  23.378   5.973   1.581  0.0371  0.1903 -0.1946
    1W        W59896  21.657  18.535   0.179  0.5302 -0.1406  0.2329
    1W        W59897  20.836  20.542   7.110  0.1907  0.3305  0.1672
    1W        W59898  11.460  14.884   0.349 -0.1893 -0.0381 -0.1586
    1W        W59899   7.381  28.299   0.165  0.3768  0.1072  0.3039
    1W        W59900   5.879  27.542   0.796  0.2213  0.2014 -0.3060
    1W        W59901   7.580  24.383   5.970 -0.1305 -0.1256  0.1645
    1W        W59902  10.135  28.817   1.678 -0.1200 -0.1202 -0.1871
    1W        W59903  29.291  15.030   2.028  0.1137 -0.0882  0.1129
    1W        W59904  19.966  29.654   7.999 -0.2887  0.0420  0.1759
    1W        W59905   8.492  20.099   8.206 -0.0572 -0.4236  0.0554
    1W        W59906   7.015   7.718   0.147 -0.2007  0.2677 -0.1775
    1W        W59907  26.894  21.786   2.162 -0.2263  0.1762 -0.1532
    1W        W59908  28.603  11.334   1.299 -0.1909 -0.0032 -0.0781
    1W        W59909  13.753   9.071   1.237  0.0502 -0.2334  0.2289
    1W        W59910   1.126  13.469   7.911 -0.0033  0.0516  0.0591
    1W        W59911  26.116  23.940   2.384  0.1528  0.0992  0.0499
    1W        W59912   7.366   8.480   0.773  0.2215  0.0868  0.4553
    1W        W59913  13.883  15.490   8.508  0.1563 -0.0468  0.1149
    1W        W59914  19.635  24.253   0.311 -0.0340  0.1757 -0.3085
    1W        W59915  26.775  27.166   6.954 -0.0485  0.3557 -0.3826
    1W        W59916  13.870  23.580   8.389 -0.0501  0.2241  0.2148
    1W        W59917   3.363  14.373   2.790  0.0610 -0.0152 -0.0232
    1W        W59918  23.400  29.437   7.558 -0.0108  0.1178 -0.1741
    1W        W59919  24.022  29.493   8.701  0.0500 -0.1395 -0.1487
    1W        W59920   3.230   0.922   0.497 -0.2599  0.0687 -0.0401
    1W        W59921  27.310  24.141   1.013 -0.2280 -0.1206  0.1997
    1W        W59922  29.132  24.300   7.621 -0.0998  0.0065 -0.3055
    1W        W59923  16.548   4.592   1.347  0.1941 -0.0620  0.0346
    1W        W59924   9.438  28.151   2.359 -0.1205  0.2841 -0.3971
    1W        W59925  27.120  28.925   7.688  0.2268 -0.1510  0.0259
    1W        W59926  19.363   0.498   1.997  0.0266 -0.1281 -0.2601
    1W        W59927  25.928   2.533   6.960 -0.0891  0.0005  0.0451
    1W        W59928  12.722   0.920   0.281 -0.0251  0.1282  0.1334
    1W        W59929   2.049   4.206   2.444 -0.2078 -0.1798 -0.1555
    1W        W59930  24.550  24.813   9.526  0.2302 -0.0544 -0.0895
    1W        W59931  28.806  17.429   1.366 -0.1636 -0.5845  0.0091
    1W        W59932  18.297  18.523   7.571  0.2563 -0.2164  0.0642
    1W        W59933   1.546  11.293   8.991  0.2155  0.1319 -0.1263
    1W        W59934  14.868  18.119   0.151 -0.1157  0.1880 -0.0740
    1W        W59935   3.786  23.675   7.107 -0.0315  0.1719  0.1538
    1W        W59936  22.413  29.346   0.919 -0.0462 -0.1305  0.1402
    1W        W59937   2.198   8.047   6.872  0.2076 -0.0808  0.2484
    1W        W59938   7.731  23.058   1.286 -0.1050  0.0328  0.3758
    1W        W59939   1.335  12.199   7.835  0.1987  0.1036  0.1901
    1W        W59940   5.477  13.569   7.370  0.0122  0.1090 -0.0379
    1W        W59941  11.004  26.670   8.921  0.2426  0.2248 -0.0473
    1W        W59942   5.826   9.020   1.025 -0.0524 -0.1251  0.2490
    1W        W59943  27.076  26.238   0.313 -0.0078 -0.1310 -0.0139
    1W        W59944   8.418  16.581   2.059  0.2904  0.0487  0.0923
    1W        W59945  16.986  28.220   7.745  0.1740 -0.2262 -0.0798
    1W        W59946  10.309   2.219   7.561 -0.6158 -0.1546 -0.1520
    1W        W59947   6.583  13.989   1.823 -0.1556  0.1381 -0.1207
    1W        W59948  17.421  14.812   2.239 -0.0252  0.1026 -0.2508
    1W        W59949   3.828  23.044   0.612  0.0634 -0.0331  0.1368
    1W        W59950   8.806  22.720   5.239 -0.0447  0.1682  0.1440
    1W        W59951  18.910   6.332   1.501  0.1840 -0.0284 -0.2964
    1W        W59952   4.015   3.803   8.169  0.3213 -0.1454  0.2207
    1W        W59953  25.968  27.552   0.567 -0.2552 -0.0240 -0.1774
    1W        W59954   7.049   3.453   9.012  0.1877 -0.0431 -0.0232
    1W        W59955  29.123  28.492   6.691 -0.0083  0.1404 -0.1104
    1W        W59956  23.369  17.788   1.818 -0.4060  0.1369 -0.3943
    1W        W59957  12.739   7.949   3.898  0.2259 -0.1316 -0.3281
    1W        W59958  28.362  13.456   0.485  0.2296 -0.1530 -0.0993
    1W        W59959  13.442   2.417   2.113 -0.1370  0.0883  0.1528
    1W        W59960  27.257   6.491   0.001  0.2769 -0.2179  0.0855
    1W        W59961  14.887   6.269   0.566  0.0679  0.1249 -0.0760
    1W        W59962  17.865  21.995   6.841  0.2572  0.2401 -0.0070
    1W        W59963  26.013  10.608   7.370  0.0518 -0.1874 -0.1571
    1W        W59964  19.313   0.079   1.321 -0.0972  0.1035  0.1505
    1W        W59965   8.732  20.667   2.071  0.0435 -0.3924 -0.0113
    1W        W59966  16.349  28.478   8.157  0.0219 -0.0843  0.0805
    1W        W59967  10.102  18.438   7.514 -0.2650  0.1771  0.1429
    1W        W59968  12.586   1.032   9.305 -0.0535  0.2052  0.1754
    1W        W59969  22.616  26.292   7.297  0.0962  0.1826  0.1915
    1W        W59970  29.167  28.256   7.644 -0.0136 -0.0493  0.1008
    1W        W59971  26.753  20.275   7.501 -0.4493  0.1234  0.3064
    1W        W59972  17.416  10.925   0.667 -0.0991  0.3547  0.3478
    1W        W59973  10.678  21.974   0.099 -0.1982  0.2267  0.2533
    1W        W59974  28.441  14.220   9.477 -0.1517 -0.0600  0.2194
    1W        W59975  17.232   6.153   0.796  0.1118  0.2425  0.3886
    1W        W59976  20.647   3.849   3.950  0.1718  0.1180 -0.3847
    1W        W59977   9.011  12.328   2.517 -0.0338 -0.1429 -0.3723
    1W        W59978  19.194   6.998   8.501 -0.0446  0.2111  0.0389
    1W        W59979   3.249  26.044   0.263 -0.0829  0.1506  0.2677
    1W        W59980  10.057  11.097   2.278  0.1995  0.0784  0.1613
    1W        W59981   0.534   5.081   0.912  0.2237  0.4995  0.1476
    1W        W59982   4.292   8.954   1.707  0.0131  0.0135  0.1777
    1W        W59983  19.758  13.926   1.250 -0.0859 -0.1440 -0.3002
    1W        W59984  19.083  24.000   7.201 -0.1259 -0.0435  0.0653
    1W        W59985  23.728   7.147   2.789  0.0155  0.1681  0.0846
    1W        W59986   7.106  13.013   8.200 -0.0836 -0.0643  0.0638
    1W        W59987  28.495  16.643   8.427 -0.0164  0.0604 -0.1272
    1W        W59988  23.605   5.058   1.073 -0.1222 -0.1752 -0.0007
    1W        W59989  23.897   3.629   1.901  0.0676  0.1466  0.0205
    1W        W59990  19.135   8.327   8.884 -0.1626 -0.0094  0.1982
    1W        W59991   2.844   3.832   9.360 -0.1665 -0.1219  0.0859
    1W        W59992   7.991  21.435   1.794 -0.0546  0.1897  0.0355
    1W        W59993  23.468  12.374   1.423 -0.0741 -0.0031 -0.1430
    1W        W59994  12.822  10.412   1.206  0.0223  0.1879 -0.1894
    1W        W59995  11.107  14.046   2.051  0.2209  0.0038  0.0583
    1W        W59996   9.839  16.315   7.551  0.0548  0.0037  0.3626
    1W        W59997  29.233  12.581   2.577  0.0660 -0.0370  0.0633
    1W        W59998   5.150   7.609   2.021 -0.0596  0.1789 -0.1563
    1W        W59999   1.189  21.678   8.036 -0.0440 -0.0344  0.0194
    1W        W60000  19.910   8.615   0.510  0.1815 -0.0859  0.0998
    1W        W60001  20.557  20.656   8.748 -0.0922  0.1830 -0.0796
    1W        W60002   4.997  22.427   8.492  0.2170  0.0543  0.0934
    1W        W60003  14.620   3.451   2.843  0.0507  0.1329 -0.0162
    1W        W60004  20.003  17.369   2.203  0.0598  0.1990 -0.0715
    1W        W60005   0.462  22.600   7.209  0.2301  0.2882 -0.0532
    1W        W60006  12.149  27.848   7.773  0.3016  0.2471  0.2822
    1W        W60007  15.658  27.190   9.346  0.0610 -0.1999  0.3085
    1W        W60008  14.326  20.753   7.163 -0.1754  0.1183  0.0973
    1W        W60009   9.772  21.468   0.023  0.3568  0.0447  0.2729
    1W        W60010   9.927  21.942   8.873  0.0555  0.0172  0.0313
    1W        W60011  26.391   9.983   2.706 -0.1929 -0.1673  0.1559
    1W        W60012  10.587  21.499   1.491  0.0770 -0.2938  0.0762
    1W        W60013  15.256  23.746   9.325 -0.2832 -0.1763 -0.3312
    1W        W60014  12.849  13.213   0.766  0.1313  0.1391 -0.4076
    1W        W60015   7.307  29.432   9.167 -0.0696  0.2030 -0.5351
    1W        W60016   3.582  22.717   1.583 -0.1692 -0.0643  0.1362
    1W        W60017  20.669   1.445   9.402  0.3938  0.0024 -0.1759
    1W        W60018  28.511  26.937   1.134  0.0027 -0.2140  0.2156
    1W        W60019   3.454   8.489   0.343  0.3691  0.3919 -0.2522
    1W        W60020  13.213  25.155   6.215 -0.0435 -0.2283 -0.0778
    1W        W60021  24.002  13.787   8.887  0.0865 -0.1055  0.0075
    1W        W60022  27.531  14.706   1.959  0.1546 -0.1409 -0.2391
    1W        W60023   9.190   6.273   8.319 -0.0208 -0.2121  0.1065
    1W        W60024  18.759  28.445   9.388  0.1777  0.2666 -0.0244
    1W        W60025  14.288   6.154   7.745 -0.1265 -0.3066  0.1342
    1W        W60026   3.473  23.414   0.354 -0.0452 -0.0069 -0.1510
    1W        W60027  24.833   3.698   0.104  0.0521 -0.1679  0.0454
    1W        W60028  10.465   9.595   9.189  0.2055 -0.2613  0.3802
    1W        W60029  26.774  15.613   7.805 -0.0367  0.0557  0.2739
    1W        W60030  16.321   9.295   2.226 -0.2887  0.0997  0.1304
    1W        W60031   4.282   2.391   9.211 -0.1876 -0.3780  0.0394
    1W        W60032  12.925  27.301   1.454  0.3673  0.1716 -0.0806
    1W        W60033  24.014   9.999   0.597 -0.1965  0.1959  0.2305
    1W        W60034   3.851  26.887   1.359 -0.0059  0.1590  0.0351
    1W        W60035  12.543   6.879   8.386  0.1031  0.1283 -0.0813
    1W        W60036  16.169  24.539   8.868 -0.0081 -0.0215  0.3582
    1W        W60037  16.480  20.447   7.292 -0.1650 -0.3005  0.1493
    1W        W60038  10.044  19.976   7.591  0.3388 -0.0053 -0.1913
    1W        W60039  19.795  25.746   5.754  0.0232  0.0664  0.3233
    1W        W60040   3.320  16.115   1.379  0.2163 -0.1159 -0.0501
    1W        W60041  27.625  26.437   5.774  0.0013  0.0902 -0.2673
    1W        W60042   2.709   0.911   2.200 -0.2611 -0.0201  0.1454
    1W        W60043  19.272  29.377   3.838 -0.2362 -0.1408 -0.1073
    1W        W60044   4.762  18.867   0.755  0.0107  0.3502 -0.2408
    1W        W60045  14.014  18.497   7.214  0.1834 -0.1803  0.0564
    1W        W60046  22.606   8.112   0.105  0.1016 -0.2333 -0.1971
    1W        W60047   4.621  23.985   0.792 -0.0642  0.2002  0.2223
    1W        W60048  21.844   9.784   2.259 -0.1464  0.1448 -0.2787
    1W        W60049  27.318  16.700   7.413 -0.2959  0.0072  0.0993
    1W        W60050   9.651   6.992   7.379 -0.1130 -0.1208 -0.2281
    1W        W60051  26.143  12.507   7.709 -0.5490  0.3593  0.0079
    1W        W60052  27.276  18.149   2.063 -0.1455  0.1641  0.1951
    1W        W60053  11.111   3.088   1.982 -0.1940 -0.3207 -0.2244
    1W        W60054  11.076  26.482   7.148  0.3167  0.0323 -0.2789
    1W        W60055  13.228  26.489   1.826 -0.1902 -0.3385  0.0136
    1W        W60056   3.502   0.615   5.990 -0.1022  0.0566  0.0249
    1W        W60057  21.579   0.853   0.864  0.1165 -0.0909 -0.0371
    1W        W60058  21.496  14.353   7.353  0.0974  0.1697 -0.0449
    1W        W60059  25.261  10.676   8.214  0.2049 -0.1786  0.1469
    1W        W60060   7.102   8.481   2.835  0.4125 -0.0581 -0.0685
    1W        W60061  10.434  22.937   5.903 -0.0041 -0.2839 -0.2407
    1W        W60062   2.295  14.640   0.762 -0.0034 -0.0908  0.3351
    1W        W60063   0.411  28.446   1.959  0.1110  0.0004 -0.1973
    1W        W60064  25.515  24.009   6.870 -0.0950 -0.2676  0.2440
    1W        W60065  10.901  27.625   8.584  0.1465 -0.1292 -0.0572
    1W        W60066  16.225   9.105   8.474  0.1016 -0.1859 -0.1193
    1W        W60067  29.586  16.035   8.132 -0.0053 -0.0608  0.0540
    1W        W60068   0.816  29.179   0.594  0.0596 -0.0002  0.0869
    1W        W60069  10.816  29.423   1.081  0.0035 -0.0789 -0.1180
    1W        W60070  27.217  20.650   3.291 -0.0019 -0.0936  0.0726
    1W        W60071  19.149   0.745   1.507  0.0841 -0.2484 -0.1119
    1W        W60072  27.771  18.300   2.013 -0.0233 -0.1183  0.1905
    1W        W60073   9.082   4.835   1.415 -0.1915  0.0178 -0.0229
    1W        W60074   1.605   3.981   2.518  0.0910 -0.0870 -0.2738
    1W        W60075  14.853  11.605   9.264 -0.1135  0.1433  0.0213
    1W        W60076  14.520   2.608   0.892 -0.2599  0.3294  0.0705
    1W        W60077  21.035   7.568   8.603 -0.1104  0.3163 -0.3526
    1W        W60078  15.376   5.587   2.063 -0.4052 -0.1079  0.3824
    1W        W60079  21.782   6.271   3.346  0.1810 -0.0746 -0.2914
    1W        W60080  18.702  22.434   1.787  0.2167  0.1244 -0.0682
    1W        W60081  22.522  19.498   9.469  0.0796  0.2215  0.0301
    1W        W60082  27.981   1.732   0.238 -0.0297  0.1275  0.1005
    1W        W60083   1.551  18.118   0.385  0.1186 -0.2467  0.0040
    1W        W60084  26.367  26.469   2.402 -0.0730 -0.1668  0.0019
    1W        W60085  15.466  29.003   0.273  0.0540  0.0494 -0.2970
    1W        W60086  16.300  29.786   7.614  0.0570  0.1543  0.0221
    1W        W60087  23.993   9.308   8.466 -0.1419 -0.0713 -0.1254
    1W        W60088  15.719  13.501   9.441  0.0414  0.0159  0.2477
    1W        W60089  22.048   1.570   8.385 -0.1886 -0.2036  0.0461
    1W        W60090   5.438  10.785   5.968 -0.3800  0.0610  0.2141
    1W        W60091   3.332  29.288   0.925 -0.1321 -0.2082 -0.0149
    1W        W60092   7.523  11.190   7.502  0.1101  0.0105  0.0374
    1W        W60093  13.657  12.864   1.215 -0.1143  0.1485 -0.1907
    1W        W60094  21.628  24.603   1.142 -0.0934 -0.0188 -0.5024
    1W        W60095  15.667  12.379   2.438  0.0656 -0.2291  0.2160
    1W        W60096  28.527  14.063   0.430  0.0555  0.2185  0.0416
    1W        W60097  17.027  27.382   1.689 -0.1446 -0.0896  0.0331
    1W        W60098  21.916   2.666   3.586 -0.1044  0.0142 -0.0983
    1W        W60099   2.905  22.471   7.741  0.1002 -0.1515  0.0779
    1W        W60100  10.406  20.148   0.863 -0.3223 -0.1198 -0.2829
    1W        W60101   5.029   4.295   7.410 -0.0490  0.4120 -0.0769
    1W        W60102  25.018  10.483   2.247 -0.2360  0.1729 -0.1557
    1W        W60103   9.702  16.757   7.257  0.2393 -0.2190  0.3586
    1W        W60104   6.572   4.161   9.410  0.3188 -0.0443  0.1878
    1W        W60105  20.835  28.255   1.197 -0.0284 -0.4161 -0.0528
    1W        W60106  10.302  28.339   8.926 -0.0539 -0.0892  0.0995
    1W        W60107  22.932   5.173   3.185  0.1402  0.0263  0.2551
    1W        W60108  25.265  22.795   8.910  0.1653  0.1399 -0.1541
    1W        W60109  18.864  22.814   7.033 -0.1468 -0.1529 -0.1520
    1W        W60110  11.187   1.709   9.383  0.0179 -0.0142  0.0311
    1W        W60111   5.143  28.445   7.906  0.0489  0.1975 -0.0727
    1W        W60112  28.827  24.824   7.801  0.0884  0.0513  0.0769
    1W        W60113   5.206   0.167   0.050  0.0084  0.0001  0.0539
    1W        W60114   5.234  12.399   0.481  0.2297  0.3654 -0.0278
    1W        W60115  25.889   5.669   0.391 -0.5155  0.0398 -0.3749
    1W        W60116  12.643  12.486   7.594  0.1391 -0.2761  0.0618
    1W        W60117  10.588  23.216   6.705 -0.1142 -0.1757 -0.1751
    1W        W60118  11.622  20.883   8.231  0.2459  0.1222  0.1362
    1W        W60119  20.653   9.903   9.404  0.2901  0.1470  0.0705
    1W        W60120  21.837  14.582   0.648  0.2440 -0.1243  0.0360
    1W        W60121  25.910  21.177   8.674  0.1786 -0.0772  0.3913
    1W        W60122  10.958  25.978   7.382  0.2144  0.1699 -0.1226
    1W        W60123   4.878   4.458   2.820  0.1447  0.2155 -0.2878
    1W        W60124   6.569  21.880   7.274 -0.0093  0.1866 -0.2236
    1W        W60125   5.292  21.846   5.603 -0.0290  0.1324  0.1423
    1W        W60126  25.613   3.618   7.563  0.0064 -0.2175 -0.3016
    1W        W60127  14.278  23.870   1.937  0.0823  0.0258 -0.1748
    1W        W60128  26.284  14.687   1.167  0.1354  0.0656 -0.0954
    1W        W60129   2.192  17.837   0.038 -0.0704  0.0474  0.3765
    1W        W60130  25.984  24.822   1.226  0.0164  0.1153  0.3894
    1W        W60131   8.948  24.074   8.818  0.3894  0.3338 -0.1884
    1W        W60132  18.937  13.709   7.041 -0.2818  0.2932 -0.1861
    1W        W60133   6.609   8.313   8.231  0.1610  0.2689 -0.3508
    1W        W60134  23.643   2.104   8.072 -0.2014 -0.3263 -0.1475
    1W        W60135  19.199  28.777   7.465 -0.1703 -0.2002 -0.0187
    1W        W60136  12.758  20.356   0.617  0.2467  0.0969  0.2619
    1W        W60137  16.739  18.543   0.208 -0.3353  0.0896 -0.0269
    1W        W60138   4.577   8.291   2.536  0.0574 -0.0822 -0.1746
    1W        W60139   5.336   0.836   1.990 -0.1920  0.0902  0.2345
    1W        W60140  17.220  16.334   0.180 -0.0661  0.3206  0.0611
    1W        W60141  21.699   0.625   2.753 -0.0440 -0.3869  0.1367
    1W        W60142  25.962  22.917   1.656 -0.2725  0.0027 -0.0562
    1W        W60143  28.677  15.335   2.023 -0.0446  0.1392 -0.2311
    1W        W60144  26.637  11.618   2.002  0.0930  0.0554  0.1326
    1W        W60145  24.073  24.137   1.005  0.1328 -0.3174  0.1555
    1W        W60146   2.104  29.006   1.661 -0.1038 -0.2282  0.0077
    1W        W60147  12.958   8.161   9.511  0.1734  0.1787 -0.2052
    1W        W60148  22.464   6.272   9.148  0.2753  0.0210  0.1304
    1W        W60149  29.635  21.874   7.943  0.2966 -0.0458 -0.3606
    1W        W60150   3.948   9.156   6.622 -0.3351  0.0381  0.2066
    1W        W60151  24.908  22.675   1.571 -0.0601  0.0255  0.4327
    1W        W60152   0.260  20.624   9.046 -0.2603 -0.0807  0.0814
    1W        W60153  15.934  21.560   1.891 -0.4820  0.1262  0.1835
    1W        W60154   8.462  25.671   6.161  0.2371 -0.4818  0.0830
    1W        W60155  13.760   0.309   0.523 -0.1313  0.2704  0.0498
    1W        W60156  22.408  20.371   7.782 -0.3360 -0.0199  0.0756
    1W        W60157   5.394   8.785   1.470 -0.2620 -0.0585  0.1165
    1W        W60158  18.634  20.028   6.537  0.1627  0.0041  0.2675
    1W        W60159   5.613  28.662   8.124  0.1015  0.2501  0.0235
    1W        W60160   3.762  28.400   7.733  0.2426  0.0704  0.3513
    1W        W60161  26.443  19.011   7.269  0.0390  0.0201  0.2508
    1W        W60162  22.093   2.857   1.691 -0.2341  0.0555 -0.2303
    1W        W60163  19.939  18.125   8.549  0.1492  0.0743 -0.2120
    1W        W60164   4.738   4.655   7.355  0.2110 -0.1597 -0.4749
    1W        W60165  26.076  18.204   8.077  0.0371 -0.3069  0.0410
    1W        W60166   1.034  17.698   9.328  0.0710 -0.2282  0.0192
    1W        W60167   4.038   0.762   7.200  0.1858  0.1896 -0.2823
    1W        W60168  29.069  11.408   3.058 -0.0795  0.1563  0.0300
    1W        W60169  22.758  22.904   2.423  0.0350 -0.1562 -0.2461
    1W        W60170   9.346  23.718   8.095  0.1085  0.2409  0.1458
    1W        W60171  11.853  17.017   1.682 -0.0805 -0.0915 -0.0406
    1W        W60172   5.647   3.231   8.334 -0.1798  0.0031 -0.2066
    1W        W60173   9.420  18.193   6.185 -0.0481  0.0103 -0.0714
    1W        W60174  21.456  18.825   0.655 -0.0794  0.1983 -0.0295
    1W        W60175  26.614   6.244   6.564 -0.2154  0.1899  0.1881
    1W        W60176  29.084  11.410   1.462 -0.2578  0.0363  0.0890
    1W        W60177   6.584  29.032   6.772  0.1414 -0.2822 -0.0870
    1W        W60178  14.282  29.593   7.948  0.4483 -0.5601 -0.3390
    1W        W60179  20.756  16.851   6.621 -0.0537  0.0326 -0.0177
    1W        W60180  21.016  28.911   1.047 -0.0348 -0.0969  0.5553
    1W        W60181   0.005   6.772   0.804 -0.1383 -0.0752 -0.1064
    1W        W60182   6.317  20.611   1.071 -0.0715 -0.1408 -0.1046
    1W        W60183  14.425  29.638   2.946 -0.0500  0.0018  0.1276
    1W        W60184   6.110   0.898   7.615 -0.2992 -0.0591 -0.0683
    1W        W60185  27.281  26.630   1.848 -0.0129  0.0471 -0.0664
    1W        W60186   0.489   4.664   0.631  0.0288 -0.1447  0.1273
    1W        W60187  28.001  29.109   1.903 -0.1205  0.1587 -0.3115
    1W        W60188  24.221   0.605   1.549 -0.2473  0.3203  0.3154
    1W        W60189  20.443   9.446   0.426 -0.1370 -0.0034  0.1564
    1W        W60190   1.405   7.936   7.697 -0.1174 -0.0445  0.1251
    1W        W60191  17.241   2.559   0.152 -0.2017 -0.2742  0.2894
    1W        W60192   9.725  20.797   1.063  0.0286 -0.1596 -0.1278
    1W        W60193  18.675  18.834   8.262 -0.2544  0.2854  0.1230
    1W        W60194  28.178  16.256   0.877  0.0609  0.2211 -0.0065
    1W        W60195  27.140  26.841   2.245 -0.2076 -0.1896  0.1420
    1W        W60196  24.004  16.538   7.225 -0.0537  0.0164 -0.3494
    1W        W60197  16.365  25.623   0.845  0.1679 -0.1512 -0.1479
    1W        W60198  20.619   3.992   0.454 -0.0028  0.1583 -0.0147
    1W        W60199  20.944  25.563   1.786  0.1711  0.0907  0.3061
    1W        W60200   0.961  23.378   6.726  0.3352 -0.2105  0.3467
    1W        W60201  10.395  29.570   2.133  0.1731  0.2456  0.2108
    1W        W60202   1.516  27.417   8.829  0.0615 -0.1584 -0.1526
    1W        W60203  10.391  23.899   5.590  0.1953  0.1666 -0.4636
    1W        W60204   2.004  14.329   6.371 -0.2640  0.0945  0.0899
    1W        W60205  13.929  22.714   5.886 -0.2541  0.0553  0.0651
    1W        W60206  20.479   7.657   9.414 -0.0584  0.0863  0.0821
    1W        W60207  21.648  25.136   6.652 -0.3203  0.0702 -0.1887
    1W        W60208   2.732   9.914   8.411 -0.1951 -0.0212  0.1521
    1W        W60209   4.515  25.890   6.720  0.2208  0.0332  0.0358
    1W        W60210   0.964   1.095   0.294  0.2043 -0.1426 -0.1673
    1W        W60211  28.841  15.719   9.028  0.1397  0.0430 -0.4365
    1W        W60212   0.248  16.821   2.976 -0.1643 -0.0379 -0.0353
    1W        W60213  19.623   6.981   8.769  0.2191 -0.0905 -0.0769
    1W        W60214   5.068  11.892   2.033 -0.0096  0.0708  0.0541
    1W        W60215  21.805  23.787   6.166 -0.0669 -0.0977  0.0697
    1W        W60216   5.119  10.177   2.219 -0.1041  0.1251 -0.6421
    1W        W60217   9.757  23.415   9.054  0.2266  0.0058  0.1364
    1W        W60218  13.473   4.936   2.245  0.2847  0.2189  0.2361
    1W        W60219  28.824  29.181   7.572 -0.1117  0.0606  0.2602
    1W        W60220  26.063  29.734   8.083 -0.0677 -0.0403  0.0061
    1W        W60221  17.099  15.842   0.163  0.2276 -0.0905  0.2052
    1W        W60222   8.708   4.111   1.377  0.0278 -0.0783 -0.4046
    1W        W60223   7.962  26.080   7.535  0.2375  0.1511  0.0074
    1W        W60224  18.741  11.980   6.978  0.1786  0.0808 -0.0900
    1W        W60225  27.947   9.067   8.204  0.0225  0.0969 -0.1522
    1W        W60226  23.050   6.899   7.301 -0.0466  0.1167  0.1297
    1W        W60227  22.144  12.649   2.625 -0.1929  0.1124  0.0207
    1W        W60228  16.529   7.242   2.960  0.3063 -0.0246  0.1181
    1W        W60229  27.969   0.663   1.512  0.1992 -0.1454 -0.3047
    1W        W60230  27.972  15.382   1.935 -0.1882  0.2687 -0.0070
    1W        W60231  14.119  15.446   6.815  0.0812 -0.1950 -0.0513
    1W        W60232  15.142  27.849   1.644  0.2422 -0.2940 -0.0393
    1W        W60233  13.762  20.260   7.127  0.0410 -0.1017 -0.1464
    1W        W60234   9.175  14.201   7.856 -0.2168  0.0942 -0.2345
    1W        W60235   8.298   1.713   0.991 -0.2123 -0.0158  0.0216
    1W        W60236  17.285  19.977   7.441  0.3021 -0.1186  0.0183
    1W        W60237  18.306  23.430   8.568  0.0459 -0.1737  0.1366
    1W        W60238  27.295  25.317   0.330  0.2025 -0.2469 -0.0573
    1W        W60239  24.616  26.232   9.356  0.2437  0.0744  0.0313
    1W        W60240   5.038  13.256   2.144  0.2775 -0.4197 -0.0672
    1W        W60241   6.657   0.763   8.804  0.2438 -0.1798 -0.1659
    1W        W60242   5.621  18.122   6.771 -0.1033 -0.1164 -0.0471
    1W        W60243  26.245  29.125   7.428 -0.0400  0.0684  0.4738
    1W        W60244   2.007  20.755   1.149 -0.4455  0.2050 -0.1222
    1W        W60245  18.194  24.987   2.247  0.3434 -0.0944  0.0733
    1W        W60246   3.309  23.500   8.995 -0.0991  0.0163  0.1542
    1W        W60247  23.419  16.987   1.875 -0.0978  0.4652 -0.0972
    1W        W60248  12.371  17.639   7.333 -0.0396 -0.2822 -0.1130
    1W        W60249  11.896  12.972   8.292 -0.1144 -0.3712 -0.3711
    1W        W60250  19.307  11.976   0.428 -0.1339  0.3069  0.1286
    1W        W60251  24.289  18.820   0.952 -0.0691 -0.0939  0.0984
    1W        W60252   0.224  22.107   1.734 -0.1395  0.1302 -0.0432
    1W        W60253  27.152   2.013   7.702  0.1080  0.0474 -0.0188
    1W        W60254   7.324  20.927   8.427 -0.3500 -0.0238  0.1844
    1W        W60255  27.436  14.426   7.318 -0.0633 -0.2877 -0.1292
    1W        W60256  22.124  18.217   6.587 -0.1304 -0.3542  0.0149
    1W        W60257  18.467  14.508   8.469 -0.1359  0.0473  0.1666
    1W        W60258  25.033  26.318   7.258  0.4708 -0.0211  0.2064
    1W        W60259   7.427  25.949   0.350 -0.0418 -0.2021  0.2211
    1W        W60260   3.407  22.510   6.775  0.0037  0.1799 -0.1869
    1W        W60261  16.443  21.197   0.829  0.1369 -0.1728  0.1535
    1W        W60262   8.766  10.363   6.683  0.2777 -0.0275  0.0554
    1W        W60263   2.647   7.776   0.204 -0.1172  0.0857  0.1844
    1W        W60264   0.805   0.848   6.952  0.0683 -0.2116  0.0342
    1W        W60265  24.390   5.362   9.242  0.0751 -0.0236 -0.0812
    1W        W60266   8.412  11.217   1.465  0.1761 -0.0143 -0.0517
    1W        W60267  11.141  26.103   0.129 -0.0554  0.1633 -0.0878
    1W        W60268   6.219   1.912   7.672 -0.2419  0.1398 -0.0520
    1W        W60269  17.049   2.863   8.555  0.1535  0.2693 -0.0497
    1W        W60270  26.291  16.212   1.792 -0.0337  0.1083 -0.0647
    1W        W60271  21.663  16.091   1.654 -0.1864  0.1806  0.0678
    1W        W60272  12.124  29.028   7.416 -0.0986  0.0341  0.1504
    1W        W60273   7.459  17.445   2.049 -0.1279 -0.1854 -0.0783
    1W        W60274  24.779  28.954   0.181 -0.0579  0.0654  0.1513
    1W        W60275   8.185  10.121   0.025 -0.0310 -0.0619  0.2906
    1W        W60276  19.559  20.343   7.260 -0.3293  0.1017  0.1682
    1W        W60277  28.681  28.604   6.920 -0.0439  0.2541  0.0982
    1W        W60278  13.272  12.567   6.496 -0.0707  0.1712  0.2285
    1W        W60279  24.360  13.641   7.024 -0.1270  0.2705 -0.1401
    1W        W60280   1.908  26.979   0.564  0.0853 -0.1911 -0.0438
    1W        W60281  29.666  24.293   7.420  0.0519  0.0587 -0.0115
    1W        W60282   8.796  23.054   1.615 -0.2418  0.2294 -0.2228
    1W        W60283  27.835  27.324   7.016 -0.0814  0.1579 -0.1372
    1W        W60284  16.132   4.641   8.631 -0.0200  0.0378  0.1946
    1W        W60285  10.877  25.141   9.235  0.1360  0.0712 -0.3693
    1W        W60286   8.941   3.230   0.114  0.1864 -0.0383  0.4739
    1W        W60287  15.875  22.545   0.440 -0.1048 -0.2959 -0.2021
    1W        W60288  21.036   1.556   9.032 -0.4329 -0.1270 -0.0583
    1W        W60289  11.767   8.318   2.807  0.0101 -0.1554  0.0312
    1W        W60290  27.961  19.915   0.486  0.1896  0.0335 -0.0595
    1W        W60291  13.738   0.732   8.765 -0.1520  0.0743  0.2365
    1W        W60292  11.398  17.281   0.661  0.2874 -0.1650 -0.0970
    1W        W60293  25.439  22.581   7.069 -0.1779  0.0133  0.1017
    1W        W60294  27.652  13.137   7.368  0.0594 -0.1264  0.1959
    1W        W60295   8.832  10.164   1.931  0.1553  0.0597 -0.1838
    1W        W60296  29.417  11.639   1.107 -0.1723 -0.0630 -0.2838
    1W        W60297   5.162   3.982   2.598 -0.0963 -0.1053 -0.2190
    1W        W60298  10.665  26.376   7.437 -0.1479  0.0780  0.0363
    1W        W60299  17.234   3.444   1.338  0.1011 -0.1871  0.1732
    1W        W60300  15.133   3.800   3.495  0.2221 -0.0294 -0.0225
    1W        W60301  22.283   7.622   8.178 -0.0803 -0.0946  0.0048
    1W        W60302   8.189   9.061   2.027  0.1675  0.0105  0.0232
    1W        W60303  10.571  21.535   5.472  0.1105  0.2837 -0.0182
    1W        W60304  28.737   8.453   2.286  0.0161 -0.1783 -0.0925
    1W        W60305  15.505   2.460   3.400 -0.4147  0.1221 -0.1978
    1W        W60306  16.106  21.352   7.745 -0.2667  0.2832 -0.1039
    1W        W60307   8.167  26.837   8.430 -0.1399 -0.1013 -0.0343
    1W        W60308  13.693  14.813   2.858  0.0098  0.1218 -0.0462
    1W        W60309  19.670  13.712   1.742  0.1516 -0.2054  0.1024
    1W        W60310  21.541  23.453   1.826 -0.0794  0.0281 -0.0772
    1W        W60311  18.287  11.681   2.001  0.0505 -0.1795 -0.1185
    1W        W60312  10.922  10.868   0.447  0.3033  0.1746  0.1323
    1W        W60313   9.168   2.280   2.502 -0.1146  0.1953 -0.4674
    1W        W60314  13.704  21.552   5.644 -0.1353  0.0464  0.0569
    1W        W60315   9.353   3.235   2.868 -0.0438 -0.3171  0.1191
    1W        W60316  25.489   8.480   0.122 -0.1589  0.0797 -0.1991
    1W        W60317  11.153   1.790   0.441 -0.3238 -0.1792  0.2281
    1W        W60318  16.010  15.880   0.611 -0.0826 -0.1486 -0.0705
    1W        W60319  12.582  28.735   0.543 -0.1417 -0.1043  0.0155
    1W        W60320   0.728  13.495   0.072 -0.2227 -0.0322 -0.0426
    1W        W60321  26.004   4.011   2.524  0.3440 -0.3146 -0.0597
    1W        W60322  18.558   5.129   0.269  0.0000  0.1671 -0.1191
    1W        W60323  13.799  13.609   1.763 -0.3778 -0.0289  0.2972
    1W        W60324  27.454   9.314   1.795  0.1385  0.0409 -0.1181
    1W        W60325   6.523   6.922   7.212  0.2581  0.1987  0.1478
    1W        W60326  23.565   6.732   0.992 -0.1992  0.1754 -0.1142
    1W        W60327   3.532  25.471   6.122  0.4239  0.3236 -0.0948
    1W        W60328   9.631  27.412   2.221 -0.1267  0.3391 -0.1487
    1W        W60329  20.626  23.355   7.525 -0.1170  0.2107 -0.1597
    1W        W60330   5.515   0.973   6.902  0.2814  0.2696  0.1563
    1W        W60331   1.256  12.158   1.282 -0.0972 -0.0129 -0.0148
    1W        W60332  25.359   5.722   3.004 -0.1535  0.1339 -0.1889
    1W        W60333  13.088  14.135   9.164  0.1794  0.2213 -0.0474
    1W        W60334  18.830  11.602   1.982  0.1934 -0.3359  0.4014
    1W        W60335  29.566  25.895   7.148 -0.1605  0.1147 -0.3451
    1W        W60336  28.367   3.712   9.317 -0.3172 -0.0290  0.1053
    1W        W60337   2.254  23.543   8.532  0.1012 -0.0679 -0.1665
    1W        W60338  22.541  25.020   9.090  0.1574 -0.0521  0.1448
    1W        W60339  17.055  18.925   6.180 -0.1292 -0.2804 -0.1563
    1W        W60340  14.549  24.383   2.361  0.2628 -0.0436  0.1122
    1W        W60341  15.020  15.973   7.651  0.1706 -0.2501 -0.0164
    1W        W60342  28.730   1.701   9.252  0.0356  0.1154 -0.1829
    1W        W60343  17.050  10.354   7.969  0.2672  0.2007 -0.1355
    1W        W60344  26.356  22.811   7.483  0.0725 -0.5740 -0.1179
    1W        W60345  10.317  13.285   8.216  0.1113 -0.0614 -0.1524
    1W        W60346   9.860   6.890   0.409 -0.2095 -0.2005 -0.2287
    1W        W60347   1.485   6.077   1.657  0.1236 -0.2402 -0.0822
    1W        W60348  17.713  15.571   1.945 -0.2424  0.0869 -0.1608
    1W        W60349  28.052   1.272   8.804  0.0481 -0.2538 -0.1094
    1W        W60350  16.936  21.490   0.064 -0.0796  0.2740 -0.0859
    1W        W60351   1.987   5.978   1.728 -0.0309  0.2799  0.1194
    1W        W60352  22.915   9.623   9.174  0.1702  0.0312  0.0708
    1W        W60353  29.637  10.425   0.316  0.2640 -0.1691  0.2609
    1W        W60354   9.898  16.599   6.724  0.0217  0.1913 -0.2785
    1W        W60355   2.712   8.291   8.850  0.0414 -0.0037 -0.0453
    1W        W60356  25.474   5.728   0.078  0.0463 -0.1997  0.0633
    1W        W60357  20.180  18.072   9.004  0.0792  0.1640  0.0744
    1W        W60358   1.953  22.632   8.292 -0.0189  0.1547 -0.1189
    1W        W60359  17.673  10.943   8.104 -0.0548  0.0383  0.1419
    1W        W60360  22.222  23.704   2.366 -0.2283 -0.3788  0.0187
    1W        W60361  10.862  22.047   8.521  0.0067  0.0748 -0.0786
    1W        W60362   9.085  29.121   1.768  0.0115  0.3782  0.1877
    1W        W60363   1.886  15.611   9.175 -0.1039  0.0677 -0.0595
    1W        W60364  27.583  23.884   2.991 -0.0402  0.1068  0.0695
    1W        W60365  10.232  13.866   1.901  0.1040 -0.1689  0.0798
    1W        W60366   6.072   8.016   7.249 -0.0441  0.1369  0.1399
    1W        W60367  23.446  23.649   1.919 -0.1066  0.1680  0.0346
    1W        W60368   6.547  29.182   0.622 -0.1457 -0.2311 -0.1188
    1W        W60369  16.522   7.510   9.441  0.1188 -0.0591 -0.2049
    1W        W60370  11.864   4.269   1.710 -0.1195 -0.4415 -0.1753
    1W        W60371  11.401  26.776   8.588  0.0753  0.0042 -0.2784
    1W        W60372   0.511  16.099   8.950  0.1741 -0.0441  0.0382
    1W        W60373   7.805  19.469   9.319 -0.0144  0.1684  0.2359
    1W        W60374   3.513  20.142   6.959 -0.1348  0.0682  0.0854
    1W        W60375  22.073   0.901   0.781 -0.0205  0.0804  0.1557
    1W        W60376  13.350  13.163   8.272 -0.2689  0.2759  0.1114
    1W        W60377  15.583   6.271   1.504  0.0233 -0.0949  0.3564
    1W        W60378   7.364   5.953   1.764  0.1382  0.0383  0.0051
    1W        W60379   7.172   1.609   2.477  0.2295  0.1483  0.0673
    1W        W60380  16.706  15.695   1.933 -0.1703 -0.2389 -0.0325
    1W        W60381   7.910  21.122   1.379  0.0392 -0.0023  0.0714
    1W        W60382  25.518  16.439   2.380  0.0886 -0.0151 -0.1447
    1W        W60383   8.261  15.284   2.098 -0.2232 -0.1628 -0.3764
    1W        W60384   5.053   8.197   8.053 -0.0994  0.4566  0.1908
    1W        W60385  20.493  27.545   2.764 -0.1099  0.1027  0.1308
    1W        W60386  24.809  22.198   0.471  0.0634 -0.1175  0.3392
    1W        W60387  28.057  20.612   6.893  0.0805 -0.0097 -0.0632
    1W        W60388   2.956  15.872   8.934  0.2180  0.1262  0.0032
    1W        W60389   9.265  21.430   7.738  0.1198  0.1723  0.1667
    1W        W60390   4.338  20.807   8.526 -0.2296  0.5263  0.3229
    1W        W60391  27.677   1.871   7.911 -0.2676  0.0010  0.3161
    1W        W60392  12.151   7.955   0.642 -0.1586  0.2732 -0.0394
    1W        W60393  29.732   7.871   0.361  0.1322 -0.1121  0.2598
    1W        W60394   4.789  27.173   0.294 -0.0482 -0.1700  0.1111
    1W        W60395  24.006   1.116   0.475  0.1323 -0.0054  0.0339
    1W        W60396  16.434  16.518   9.484 -0.0371  0.1378  0.2422
    1W        W60397  20.158   6.361   1.682 -0.1435 -0.3402 -0.0937
    1W        W60398  23.804  10.788   2.586  0.1653  0.0147  0.2406
    1W        W60399   0.423  18.304   1.820  0.0831  0.0405 -0.1176
    1W        W60400   3.189  21.410   8.982  0.1642 -0.2158 -0.1348
    1W        W60401   2.116  24.476   7.907 -0.0323  0.1066 -0.2577
    1W        W60402  25.957  18.990   8.479  0.0667 -0.1040 -0.1248
    1W        W60403   9.335  20.276   9.267 -0.1801  0.0536  0.0622
    1W        W60404  22.570  12.912   8.598 -0.1345  0.0525  0.2516
    1W        W60405   3.567  11.645   7.853  0.3101  0.0178 -0.4210
    1W        W60406  22.389  13.043   7.469 -0.0029  0.1437  0.2151
    1W        W60407   8.550   2.158   8.611  0.3626 -0.1388 -0.2330
    1W        W60408   8.425   3.491   3.898 -0.0362 -0.0561 -0.1587
    1W        W60409  14.908  11.175   9.108  0.0257 -0.1311  0.1625
    1W        W60410  10.173  24.943   1.022  0.2112  0.0166 -0.0500
    1W        W60411  14.454  16.244   1.462  0.1893 -0.3676 -0.2198
    1W        W60412  27.472  25.603   8.674  0.0384  0.1739  0.3699
    1W        W60413  13.745  17.307   1.941 -0.0045 -0.0730  0.1989
    1W        W60414  10.522   4.442   7.930 -0.1151  0.0291 -0.2281
    1W        W60415   0.272  18.068   7.435  0.0933 -0.1125 -0.0277
    1W        W60416  20.579   4.500   7.655  0.0717 -0.1144  0.0615
    1W        W60417  20.887   1.451   1.938  0.1345  0.1068 -0.1877
    1W        W60418  22.393   0.521   0.672  0.3554  0.1133 -0.2260
    1W        W60419   6.170  24.143   5.522  0.2508 -0.1003  0.0650
    1W        W60420   7.406  16.498   6.923 -0.0537 -0.0112 -0.0506
    1W        W60421  17.809   2.192   2.070  0.0073 -0.0372 -0.1283
    1W        W60422   4.669  26.250   6.372 -0.0660  0.0066 -0.0602
    1W        W60423  27.182  12.479   1.853 -0.0929  0.0184  0.2693
    1W        W60424   1.889   4.869   1.008 -0.5479 -0.1812  0.1267
    1W        W60425  13.142  10.121   1.502 -0.1077 -0.0577  0.0986
    1W        W60426   4.456  12.655   0.552 -0.0351  0.1660  0.0039
    1W        W60427  25.977  17.405   1.321  0.1164  0.1411  0.0407
    1W        W60428   1.066  29.673   9.289 -0.1975 -0.0412  0.2792
    1W        W60429  13.469   0.825   2.858  0.2955  0.2202  0.1004
    1W        W60430  10.708  12.274   9.227 -0.0291 -0.3777 -0.0961
    1W        W60431   6.987  22.207   0.282  0.2169 -0.1338  0.0598
    1W        W60432   8.216  15.132   0.937 -0.4926 -0.0948  0.0442
    1W        W60433  24.455  15.378   8.245  0.3384 -0.1738  0.0925
    1W        W60434   3.060  12.844   1.048 -0.0170  0.0161 -0.3175
    1W        W60435  11.622  22.049   0.999  0.0993  0.0001 -0.0463
    1W        W60436   2.387   6.911   6.179  0.3184  0.1239  0.1152
    1W        W60437  25.931  20.696   8.485  0.1990  0.3043 -0.2314
    1W        W60438   3.713   3.649   0.374  0.2572  0.1960  0.0017
    1W        W60439  29.586  12.404   8.641 -0.0953  0.1311  0.1290
    1W        W60440  29.810   0.593   7.003  0.1760 -0.0297 -0.1069
    1W        W60441   0.601  11.431   7.916  0.2831 -0.0066 -0.1134
    1W        W60442   5.321   6.943   1.700  0.0446 -0.0882 -0.1338
    1W        W60443   5.724   0.842   2.863 -0.1734  0.2808  0.0394
    1W        W60444  24.330  26.714   9.304 -0.1815  0.0862 -0.0744
    1W        W60445   3.587  21.657   9.184 -0.1010 -0.1225  0.1315
    1W        W60446  29.566   0.535   8.830 -0.1495  0.1826 -0.0715
    1W        W60447   1.004   4.830   3.374 -0.0350 -0.0259 -0.0278
    1W        W60448   7.537  10.361   0.747 -0.0616 -0.5885 -0.0166
    1W        W60449  13.878  23.801   1.132  0.0288 -0.1231 -0.0882
    1W        W60450  21.258  10.939   1.306 -0.1381 -0.0265  0.0904
    1W        W60451  18.016  18.298   1.702 -0.1170  0.0658 -0.0328
    1W        W60452  28.774   2.306   7.807  0.1638 -0.2187 -0.0667
    1W        W60453   5.507  11.481   6.639  0.1040  0.0532 -0.1337
    1W        W60454   0.373  23.283   6.743 -0.4762 -0.3769  0.0066
    1W        W60455  13.303  12.596   8.527 -0.2810 -0.2873  0.1074
    1W        W60456  13.130  22.443   5.546 -0.0200 -0.0259 -0.1324
    1W        W60457  23.663  28.597   9.457  0.2469 -0.0857 -0.1453
    1W        W60458  12.314  17.845   2.138 -0.2001 -0.1957 -0.4089
    1W        W60459  12.375  20.332   9.145 -0.1306  0.2684 -0.3022
    1W        W60460  25.524  19.126   6.470 -0.2737  0.3129 -0.0545
    1W        W60461  17.434  28.320   7.448  0.0651 -0.0469 -0.0229
    1W        W60462   7.403   9.403   2.470  0.1162 -0.2991 -0.0636
    1W        W60463   7.652   5.040   8.114  0.0769  0.3571 -0.1207
    1W        W60464  25.532  28.516   7.525 -0.0148 -0.0094 -0.1308
    1W        W60465   7.785  11.229   0.633  0.1351  0.0311  0.2429
    1W        W60466   5.186  24.357   6.641 -0.0509 -0.0803 -0.2295
    1W        W60467  15.008  20.110   5.169 -0.0634  0.2278  0.0163
    1W        W60468  19.918   4.044   3.192  0.4293 -0.0417  0.0191
    1W        W60469   2.745   3.670   1.975  0.1034 -0.2983  0.0793
    1W        W60470  25.142  27.330   7.049 -0.1254 -0.1408  0.2176
    1W        W60471   9.763  12.643   1.926 -0.3752 -0.2048 -0.1119
    1W        W60472  16.147  14.429   0.185 -0.1311 -0.1982 -0.1367
    1W        W60473   2.049  13.468   9.215 -0.0673  0.1878 -0.0298
    1W        W60474  12.927  11.230   8.463 -0.0977 -0.0605  0.2770
    1W        W60475  11.864  14.034   7.672 -0.0175  0.1346 -0.0610
    1W        W60476   1.764  15.385   1.745  0.2071  0.2015 -0.4331
    1W        W60477   5.246  18.706   3.221 -0.0927 -0.1980  0.0731
    1W        W60478  15.542  20.572   9.109 -0.2398 -0.3055 -0.1091
    1W        W60479  22.954   7.306   0.506  0.3698  0.1686 -0.2181
    1W        W60480   3.553  25.620   6.944 -0.1915 -0.2185  0.1568
    1W        W60481  10.103   5.806   3.060 -0.3074 -0.0352 -0.0864
    1W        W60482  12.767   7.776   1.073 -0.3162 -0.0177  0.1995
    1W        W60483   4.766   4.857   7.931 -0.3246 -0.1167  0.0805
    1W        W60484  26.162  23.451   0.206 -0.0233 -0.0210 -0.4290
    1W        W60485   9.451  19.050   8.393 -0.0657 -0.4870  0.0817
    1W        W60486   3.676  12.463   8.443  0.1718 -0.0180 -0.3631
    1W        W60487  10.891  21.348   1.048 -0.0052 -0.1872  0.1673
    1W        W60488  29.236   9.225   7.315 -0.3623  0.0642  0.0679
    1W        W60489   2.889   5.708   0.676  0.0985 -0.2781 -0.0293
    1W        W60490  12.933  26.650   6.740  0.0098 -0.0695  0.0982
    1W        W60491   8.009  15.967   0.915 -0.3250  0.0548 -0.0656
    1W        W60492  13.028  28.404   6.198 -0.3309 -0.2300  0.0294
    1W        W60493  21.847  21.039   1.962  0.1790 -0.0235  0.1772
    1W        W60494  16.613  15.985   5.949 -0.0855 -0.3080  0.0001
    1W        W60495  19.663  22.415   1.372 -0.0975  0.3653  0.0848
    1W        W60496   1.837   9.691   7.467 -0.0356  0.0228 -0.0046
    1W        W60497  16.324  27.705   8.427 -0.2213  0.1631  0.0038
    1W        W60498  20.196  28.957   9.317 -0.0326 -0.1102 -0.0864
    1W        W60499  29.261  19.054   7.306 -0.0043 -0.1319 -0.1480
    1W        W60500  27.836  11.866   7.607 -0.2711  0.6065  0.1272
    1W        W60501  24.051  11.090   9.358 -0.0565 -0.1265  0.0572
    1W        W60502  14.972  11.085   8.615  0.0133 -0.1863 -0.0275
    1W        W60503   1.204  10.820   1.689  0.0479 -0.1235 -0.1507
    1W        W60504   1.262  14.513   1.674  0.4656 -0.3480  0.1903
    1W        W60505  15.680   6.563   8.557  0.0944 -0.1151  0.2047
    1W        W60506   2.794  14.592   7.255 -0.3497 -0.2146  0.2165
    1W        W60507  22.816   1.880   7.856 -0.0631  0.0397 -0.3496
    1W        W60508   4.919  13.118   9.097 -0.0416  0.0936  0.0117
    1W        W60509  28.026  27.288   2.412  0.1097 -0.3118 -0.0227
    1W        W60510   3.124  22.451   8.868  0.0338 -0.0963 -0.0522
    1W        W60511   9.982  19.396   2.291  0.0821 -0.1514  0.0679
    1W        W60512  24.506   0.409   3.071 -0.3874  0.1268  0.0790
    1W        W60513   3.356   3.849   2.802 -0.2162  0.0590  0.5272
    1W        W60514   2.646   1.988   7.473 -0.1493  0.1308 -0.2106
    1W        W60515  11.128   1.550   1.687  0.1397  0.3508 -0.1557
    1W        W60516  21.101   9.932   8.394  0.3148  0.0408 -0.0623
    1W        W60517  13.415   2.037   1.322 -0.2055  0.1191  0.3729
    1W        W60518  12.148  19.854   7.566  0.1406  0.0750 -0.4000
    1W        W60519  12.103   6.865   0.287  0.1376  0.1421  0.1286
    1W        W60520   0.024   1.145   0.008  0.0376 -0.2950 -0.1027
    1W        W60521  25.523  20.760   7.395 -0.1511 -0.0800 -0.1355
    1W        W60522  28.891  10.436   8.864  0.1241 -0.3054  0.2243
    1W        W60523  16.898  19.180   1.322  0.2366 -0.1450 -0.1293
    1W        W60524  10.050  27.451   8.232 -0.0067 -0.3149 -0.2909
    1W        W60525   3.642  20.648   8.329 -0.0845 -0.3992 -0.1975
    1W        W60526   3.411  26.474   1.183 -0.1204 -0.0222 -0.1078
    1W        W60527  18.796  16.474   7.605 -0.0312  0.0035 -0.1778
    1W        W60528  14.247  23.045   9.217 -0.1203  0.0857  0.2501
    1W        W60529  14.606   4.667   3.713  0.2173  0.2602 -0.0151
    1W        W60530  10.385  23.895   0.916  0.0373 -0.0803  0.0388
    1W        W60531  10.464  13.065   1.599  0.2612 -0.0173  0.0957
    1W        W60532   3.595   3.657   6.574  0.0468 -0.0725 -0.1072
    1W        W60533   3.534   5.185   2.795 -0.0185  0.2135 -0.1558
    1W        W60534   1.624   7.041   2.198  0.3306  0.0440  0.0464
    1W        W60535   5.477  28.398   1.160  0.0965 -0.2492 -0.0835
    1W        W60536   3.237  13.142   2.959 -0.2954  0.0663 -0.3716
    1W        W60537  19.644   4.292   1.324 -0.0380  0.0640 -0.0986
    1W        W60538   0.517   2.106   6.694  0.2749 -0.2402  0.1844
    1W        W60539  28.655  26.765   7.813 -0.0406 -0.2617  0.0669
    1W        W60540   7.893  15.729   9.385 -0.0574 -0.2815 -0.2228
    1W        W60541   2.574  22.755   7.297  0.0490 -0.4334  0.0058
    1W        W60542   7.474   8.967   0.975  0.0971  0.1044  0.0200
    1W        W60543  29.489  22.985   9.198  0.0246  0.0049  0.2513
    1W        W60544  25.202  13.538   8.540  0.0611  0.1649 -0.1135
    1W        W60545   0.972  14.569   7.685 -0.2508 -0.0469 -0.0836
    1W        W60546  23.484   4.491   0.328  0.1652 -0.0912 -0.0332
    1W        W60547  24.050  28.358   8.091  0.0469 -0.0046 -0.1450
    1W        W60548   2.906   3.043   2.886  0.1716  0.1000  0.0556
    1W        W60549  19.961   2.556   3.590 -0.0654 -0.0606  0.0279
    1W        W60550   0.729  12.916   6.228  0.1415 -0.0340  0.0925
    1W        W60551  24.728  16.212   8.461 -0.1796 -0.0252  0.1112
    1W        W60552   9.973   6.253   7.681 -0.2388  0.1009  0.0852
    1W        W60553   1.491  17.403   9.432  0.2667 -0.0564  0.1299
    1W        W60554  12.631  16.370   7.436  0.1337  0.1858  0.2966
    1W        W60555  17.894  27.942   8.939 -0.2622  0.2086  0.0017
    1W        W60556   0.775  22.112   7.061 -0.2661  0.2235 -0.0482
    1W        W60557  18.598  28.776   1.512  0.1528 -0.3059 -0.0150
    1W        W60558   5.651  20.862   2.700 -0.1457 -0.0759  0.1934
    1W        W60559  12.777  12.447   1.376 -0.1167  0.1583  0.1184
    1W        W60560   4.005  25.571   0.812  0.0436  0.1902  0.2294
    1W        W60561  16.867  19.923   9.086 -0.0263 -0.0447 -0.2410
    1W        W60562  28.996  28.148   8.630  0.0264  0.0783  0.1007
    1W        W60563  10.089   5.269   2.561 -0.2655  0.0518  0.0460
    1W        W60564   7.588  17.354   6.670  0.0312 -0.0305 -0.1034
    1W        W60565   1.768  25.623   5.790  0.1345  0.2179  0.0555
    1W        W60566  23.363  23.957   9.463 -0.0414 -0.0066  0.4625
    1W        W60567  17.455   8.845   2.778 -0.0001 -0.4343  0.0886
    1W        W60568  14.673  12.694   1.468  0.0446 -0.2056 -0.1175
    1W        W60569   4.012   2.316   2.227  0.0699 -0.1948 -0.5217
    1W        W60570  19.683   4.154   0.171 -0.0334 -0.0300 -0.1465
    1W        W60571   5.209   4.807   9.020 -0.2041 -0.0639  0.2970
    1W        W60572  14.542   3.330   3.313  0.2217 -0.2654  0.1343
    1W        W60573  10.247  21.622   1.098 -0.1714 -0.2504 -0.1650
    1W        W60574  23.712   6.316   3.363  0.2954  0.3180  0.0142
    1W        W60575  24.124  26.075   1.248  0.0524 -0.2312 -0.0753
    1W        W60576  11.861   2.887   1.426 -0.1164 -0.0882  0.1162
    1W        W60577  10.862   9.026   7.727 -0.0751 -0.0325  0.1918
    1W        W60578   5.776   6.026   1.024 -0.1488  0.1376  0.2274
    1W        W60579  10.956  11.809   8.978 -0.2667  0.1001  0.2101
    1W        W60580   7.911   1.357   0.779 -0.0067 -0.4190  0.0900
    1W        W60581   5.724  25.366   6.395 -0.1318 -0.1259 -0.2843
    1W        W60582  29.495   6.823   7.799 -0.0020 -0.1857  0.1017
    1W        W60583  27.858  27.494   7.892 -0.1764 -0.2863 -0.0395
    1W        W60584   2.434  24.759   5.763 -0.3477  0.2337 -0.0490
    1W        W60585   1.295  21.417   6.285  0.0880  0.0525 -0.0893
    1W        W60586   1.085   6.822   1.479  0.1287  0.0407  0.0781
    1W        W60587  29.081   8.228   3.553  0.1410  0.1740 -0.1576
    1W        W60588   1.497   7.219   8.502 -0.1692  0.0677  0.3554
    1W        W60589  12.137   7.453   0.287  0.2860 -0.1308 -0.0854
    1W        W60590  10.318  18.311   0.088  0.0459  0.1291  0.2880
    1W        W60591  22.683   9.016   1.980 -0.2511  0.1457 -0.0890
    1W        W60592  21.229  13.004   9.107 -0.1392  0.0363 -0.1137
    1W        W60593  18.212  20.975   1.262 -0.0716  0.2255 -0.2689
    1W        W60594  22.033  27.130   9.347 -0.0656  0.1779  0.1526
    1W        W60595  13.542  23.336   6.536 -0.2886 -0.4033 -0.0630
    1W        W60596   9.471  19.566   8.108  0.0827 -0.1852 -0.1418
    1W        W60597   9.150   8.485   0.540 -0.0965  0.0690 -0.1467
    1W        W60598  23.250  14.302   7.292  0.1368  0.1263 -0.1058
    1W        W60599  11.632  21.656   7.509  0.2213  0.2370 -0.0502
    1W        W60600  24.807  19.029   7.040 -0.1034 -0.2177 -0.0520
    1W        W60601  19.303   0.771   8.419 -0.1302 -0.1505 -0.2616
    1W        W60602   9.351  11.728   7.336 -0.2144 -0.2086 -0.1643
    1W        W60603  29.038  13.885   2.168  0.0773 -0.4091 -0.1928
    1W        W60604  25.065  12.422   8.646 -0.0007  0.2226  0.1831
    1W        W60605  14.777  29.749   7.952  0.0951  0.0649 -0.1063
    1W        W60606  21.064  14.814   0.240 -0.0051 -0.1007 -0.2030
    1W        W60607   4.911  27.305   6.838 -0.0169 -0.2283  0.0076
    1W        W60608   1.152  24.359   8.291 -0.0155  0.0699  0.1625
    1W        W60609  28.955   8.775   8.241  0.0050 -0.1288 -0.1535
    1W        W60610  21.993  25.180   2.721  0.1002  0.0313  0.2161
    1W        W60611  11.251  22.067   1.372  0.2007 -0.3115 -0.0657
    1W        W60612  11.426   5.735   9.094  0.1159  0.2050 -0.1058
    1W        W60613  16.211   8.515   1.649 -0.1780 -0.1293 -0.2356
    1W        W60614   8.758  13.608   1.235  0.1019 -0.1112  0.0414
    1W        W60615  24.900  27.460   7.762  0.0385  0.4734 -0.0429
    1W        W60616   5.114   0.829   2.918  0.0077 -0.0603 -0.2688
    1W        W60617  13.980  22.880   6.430  0.1110 -0.2318 -0.1411
    1W        W60618  20.545  29.146   2.785  0.3709  0.5230  0.1964
    1W        W60619  17.085  21.049   6.859  0.1413  0.0076  0.1444
    1W        W60620  11.004  11.164   6.343  0.1309  0.0995  0.0011
    1W        W60621  19.202  20.531   9.070 -0.1362 -0.2831 -0.0386
    1W        W60622  19.599  21.267   8.136  0.2097  0.1457 -0.0557
    1W        W60623  21.694   5.347   3.642 -0.1605 -0.2119 -0.0735
    1W        W60624  18.813  11.378   2.931  0.0785  0.1103 -0.1010
    1W        W60625  20.236  26.042   7.060  0.1031 -0.0708 -0.2765
    1W        W60626  15.480  28.993   1.670  0.1118 -0.0530 -0.2863
    1W        W60627  29.426  14.362   6.589 -0.0406  0.1816 -0.1032
    1W        W60628  18.661  22.357   7.374  0.0009  0.1134 -0.2219
    1W        W60629   0.763  17.256   9.240  0.0109 -0.0748 -0.0348
    1W        W60630  29.438   8.758   8.900  0.1002  0.0107  0.0501
    1W        W60631  16.887  26.617   9.352 -0.2563  0.3063  0.1924
    1W        W60632  21.115   3.729   8.230  0.2749  0.1213 -0.2125
    1W        W60633  28.445  25.803   8.105  0.1093  0.2545 -0.1924
    1W        W60634  10.407  14.005   6.817  0.0049 -0.0853  0.0059
    1W        W60635   5.051   3.791   8.829 -0.0527  0.0933 -0.1740
    1W        W60636  12.621  25.526   5.780  0.0796 -0.3670  0.1145
    1W        W60637   6.290  27.825   2.590  0.1879 -0.0218  0.0348
    1W        W60638  22.087   7.512   0.113  0.0689  0.1613  0.2425
    1W        W60639  26.964  13.080   8.973  0.1778  0.1848  0.2049
    1W        W60640   4.458   5.841   2.616 -0.1879  0.1539 -0.1034
    1W        W60641  11.595   9.508   7.379 -0.4498 -0.1494  0.0470
    1W        W60642  10.132  14.003   7.709 -0.1155 -0.1579 -0.0611
    1W        W60643   0.175  16.091   6.604 -0.3245  0.1258 -0.0064
    1W        W60644  14.755  12.814   7.962 -0.1319 -0.2397  0.0893
    1W        W60645   0.630  19.358   6.987 -0.2863  0.0789 -0.0342
    1W        W60646  18.215  10.392   8.360 -0.2498 -0.0292  0.0756
    1W        W60647  10.347   9.829   0.761  0.3840  0.1304 -0.0209
    1W        W60648  17.746  16.754   7.934  0.1364  0.0222  0.1763
    1W        W60649  25.550   1.450   9.101 -0.0814 -0.0512  0.4394
    1W        W60650  19.314  16.828   7.303 -0.0336 -0.1744  0.0569
    1W        W60651  10.258  25.176   7.665  0.0273  0.0764 -0.0035
    1W        W60652  19.756  15.783   0.509  0.0778  0.5138  0.0353
    1W        W60653  28.889   4.086   1.572  0.0465 -0.1184  0.0189
    1W        W60654  19.273   3.185   8.889  0.1025  0.0749  0.1787
    1W        W60655   6.181  20.954   6.190  0.2974 -0.2103  0.1467
    1W        W60656   8.914  13.259   5.825  0.2512  0.0799  0.0474
    1W        W60657  24.939  28.830   6.156 -0.1081  0.2865  0.1714
    1W        W60658   9.196   3.198   3.405 -0.2225  0.2666 -0.0715
    1W        W60659   8.568   7.252   3.121 -0.0115 -0.1054 -0.1081
    1W        W60660   6.915   6.674   1.383 -0.0273  0.0341 -0.3174
    1W        W60661   7.132  23.952   9.371  0.3197  0.1626  0.0212
    1W        W60662  24.443  28.640   3.311 -0.1320  0.1933  0.1507
    1W        W60663  24.928  17.881   8.752  0.0390 -0.4531  0.0739
    1W        W60664   1.609   5.688   7.194 -0.2929 -0.2446 -0.0953
    1W        W60665  20.018  27.699   2.880  0.2448 -0.0299 -0.1234
    1W        W60666  17.881  27.675   7.942 -0.3440  0.1515 -0.1269
    1W        W60667   5.414  25.079   1.134 -0.0239  0.0118 -0.0750
    1W        W60668  12.297   9.077   2.271 -0.0101  0.2035  0.0942
    1W        W60669  20.822   2.061   1.013 -0.3347 -0.2634  0.1285
    1W        W60670  23.957   7.300   8.081 -0.1614 -0.1074 -0.0471
    1W        W60671  22.972  25.684   8.597 -0.1757 -0.0754 -0.0030
    1W        W60672  15.791  13.471   7.716  0.1053  0.2022 -0.0849
    1W        W60673  26.045   9.632   1.827  0.1536 -0.3023  0.1889
    1W        W60674   4.108   5.533   2.777 -0.3583 -0.0615  0.0514
    1W        W60675   3.091  16.616   1.259  0.0154  0.0570 -0.0687
    1W        W60676  21.313  11.893   1.244 -0.0050 -0.2875  0.0544
    1W        W60677  17.215  25.386   8.701  0.0032  0.4097 -0.0954
    1W        W60678   0.855   1.767   9.059  0.1304 -0.0474  0.0891
    1W        W60679  10.733  27.109   7.352  0.0887 -0.1878  0.0507
    1W        W60680  25.826  20.096   8.586 -0.2947 -0.2774 -0.0435
    1W        W60681  24.669  20.272   1.161  0.1775 -0.2438 -0.1501
    1W        W60682  10.190  27.282   6.421  0.1675  0.0572  0.1723
    1W        W60683   5.999  13.821   6.721 -0.2959 -0.0463 -0.2634
    1W        W60684   7.799  17.791   1.967 -0.3183  0.2100  0.2589
    1W        W60685   1.631  10.483   8.096  0.3306 -0.0820 -0.2202
    1W        W60686  24.690   0.221   8.095 -0.0452 -0.3672  0.1486
    1W        W60687   1.405   0.310   6.180 -0.0685  0.0140  0.0529
    1W        W60688   0.106   7.931   1.940  0.0354 -0.1235 -0.0021
    1W        W60689  22.891  14.600   8.806  0.1539 -0.2125  0.0450
    1W        W60690   2.629  20.842   9.459  0.1137 -0.1861 -0.0282
    1W        W60691   3.756   0.305   8.380 -0.0880 -0.2784  0.1555
    1W        W60692  26.039  29.695   2.230  0.0438  0.0010 -0.0612
    1W        W60693  29.683   3.410   1.937  0.0530 -0.1157  0.0275
    1W        W60694  18.742  17.811   1.550  0.1372 -0.1085 -0.1333
    1W        W60695   6.156  15.494   7.344  0.0875 -0.1489  0.3768
    1W        W60696  20.829  21.361   0.480 -0.1114  0.0125  0.1615
    1W        W60697  14.848  28.541   1.050 -0.2764 -0.2570  0.0242
    1W        W60698   3.724  29.123   7.216 -0.0785 -0.1726 -0.0147
    1W        W60699  27.451   0.533   6.225 -0.1476  0.2285  0.1461
    1W        W60700  24.694  23.048   2.806 -0.0658 -0.2139 -0.2470
    1W        W60701  28.025  23.367   7.308 -0.1416 -0.3852  0.0180
    1W        W60702   8.170  20.978   7.963 -0.2633  0.2245  0.1287
    1W        W60703  23.681  21.194   6.686  0.1065 -0.1639  0.3902
    1W        W60704  24.709   8.523   0.585 -0.1710 -0.0965  0.0212
    1W        W60705  15.735   5.069   8.220 -0.2222  0.2243 -0.2907
    1W        W60706  29.552   2.861   1.631 -0.2089 -0.0638 -0.2177
    1W        W60707  21.339  25.370   1.608  0.1254 -0.0045  0.0477
    1W        W60708   6.948  25.936   6.229 -0.1061 -0.0169  0.1828
    1W        W60709  21.444  20.733   0.684  0.1806  0.2493 -0.1425
    1W        W60710   3.754   0.591   2.862 -0.2518  0.1544 -0.1286
    1W        W60711   1.547  21.263   9.473  0.2470 -0.1487  0.1321
    1W        W60712   8.473  16.592   0.602  0.0785 -0.1365  0.1860
    1W        W60713   9.667   2.107   2.285  0.0936 -0.1715  0.3208
    1W        W60714  11.511   7.612   1.999  0.2614  0.2055 -0.0034
    1W        W60715  13.372  10.960   7.413 -0.1478  0.1749 -0.0083
    1W        W60716  16.805  23.794   7.748 -0.0704  0.1820 -0.0047
    1W        W60717  29.153   5.204   1.103  0.2818  0.0230 -0.0447
    1W        W60718  12.177   0.667   8.366 -0.0096  0.1592  0.2828
    1W        W60719  12.836  23.740   5.895  0.1124 -0.3190 -0.0823
    1W        W60720   3.126  14.426   2.392  0.0354  0.0288 -0.1170
    1W        W60721   6.923  29.414   8.313  0.1058  0.1066 -0.0628
    1W        W60722   3.290  20.862   0.188  0.2339 -0.0919 -0.0661
    1W        W60723  18.718   2.170   8.223  0.0026  0.0380 -0.1092
    1W        W60724   5.449   9.909   1.824  0.1307 -0.2566 -0.0586
    1W        W60725  29.713  17.725   7.159 -0.3724  0.2220  0.2996
    1W        W60726  26.579   4.989   9.168  0.1458  0.0743 -0.2748
    1W        W60727  21.867  22.181   1.370 -0.1380  0.0742 -0.0225
    1W        W60728  27.721  19.186   1.801 -0.1096 -0.1889  0.1530
    1W        W60729   2.974  24.292   6.376  0.0087 -0.3232 -0.2355
    1W        W60730  15.966  11.600   0.998  0.3011 -0.0754  0.0476
    1W        W60731  21.662  13.438   7.432 -0.0387 -0.0096  0.2585
    1W        W60732  16.538  17.972   0.276  0.0448  0.2574  0.0278
    1W        W60733  18.954   6.240   3.502 -0.0177  0.1723 -0.0453
    1W        W60734   0.224  17.775   1.711  0.0408  0.2717 -0.3175
    1W        W60735   2.774  15.434   8.761 -0.1286  0.3196  0.3742
    1W        W60736  27.165   0.824   1.804 -0.1319 -0.2192  0.2852
    1W        W60737  23.750   7.677   2.948  0.1172 -0.0441 -0.4916
    1W        W60738   5.792  12.228   6.224  0.0399  0.3570 -0.2154
    1W        W60739   5.177   9.605   3.300  0.1408  0.0912  0.0961
    1W        W60740   9.031  24.984   0.456 -0.2119  0.0151 -0.2325
    1W        W60741   1.432  21.852   1.609  0.2115 -0.0883  0.1005
    1W        W60742  11.566  17.479   1.845  0.1337 -0.0039 -0.1498
    1W        W60743  23.990  22.377   1.784 -0.1458 -0.2440 -0.2831
    1W        W60744  29.561  28.905   8.399 -0.0990 -0.0952  0.2021
    1W        W60745   8.387  19.118   0.416 -0.2426 -0.0537  0.1594
    1W        W60746   2.000  28.529   1.782  0.1038 -0.0414  0.0149
    1W        W60747  18.557  22.829   9.162 -0.0007 -0.1640 -0.0390
    1W        W60748   9.394  29.075   7.162  0.1287  0.1798  0.0211
    1W        W60749  23.169  23.206   6.385  0.0421  0.0095 -0.0507
    1W        W60750   7.204  23.784   5.762 -0.2009  0.1810 -0.0722
    1W        W60751  29.796  15.847   8.640  0.3020  0.1944  0.2514
    1W        W60752   4.791   7.575   2.498 -0.3142  0.0947 -0.1190
    1W        W60753   0.303  19.315   8.242  0.0072 -0.1490 -0.1851
    1W        W60754  14.185   7.014   1.845 -0.2674  0.0526  0.0181
    1W        W60755  19.226   4.635   2.174 -0.1886  0.2332 -0.0497
    1W        W60756  23.705  10.140   1.401  0.1665  0.0953 -0.0014
    1W        W60757  24.732   7.202   8.034 -0.0526 -0.0789  0.2355
    1W        W60758  10.516  27.824   0.810 -0.3740  0.2243  0.1176
    1W        W60759  23.547   4.140   9.106  0.1111  0.1637 -0.1573
    1W        W60760   0.826  13.449   6.899  0.1208  0.0770  0.2488
    1W        W60761  19.881   9.160   0.149  0.0248 -0.1109 -0.0889
    1W        W60762  11.740  21.601   9.314 -0.3669 -0.4396  0.0230
    1W        W60763  26.772   8.673   8.999 -0.0818 -0.0276  0.0526
    1W        W60764  16.743  28.661   7.857 -0.1710  0.1738 -0.1297
    1W        W60765  20.505  10.813   2.813  0.0000  0.0122  0.5316
    1W        W60766   4.082  24.357   0.010  0.0218  0.0175 -0.0015
    1W        W60767  21.483  11.536   0.196  0.2663  0.1256  0.1689
    1W        W60768  25.035   2.373   2.583 -0.0642 -0.0280 -0.4939
    1W        W60769  11.968   4.626   9.335 -0.2342 -0.1237  0.0081
    1W        W60770  13.523   3.170   3.342  0.1135  0.1771 -0.2132
    1W        W60771   8.103   7.115   3.194 -0.0977  0.0991 -0.2235
    1W        W60772  17.995   4.026   0.382 -0.3347  0.0529 -0.0631
    1W        W60773   5.815  15.739   8.183 -0.1254  0.0539 -0.0595
    1W        W60774  22.219  21.291   2.184  0.0451  0.3276  0.0895
    1W        W60775  29.488  24.700   1.183  0.2257  0.2321  0.0380
    1W        W60776   5.140   1.298   2.105 -0.0884  0.1498  0.0279
    1W        W60777  29.523  27.947   8.360  0.3702  0.1221  0.0294
    1W        W60778  19.073  18.754   6.781 -0.0138 -0.0296 -0.0982
    1W        W60779  20.402   7.175   2.797 -0.2836 -0.2638  0.4312
    1W        W60780   3.570  27.939   0.783 -0.0944 -0.1690 -0.2545
    1W        W60781  26.937  16.846   6.591  0.2359  0.2303  0.0064
    1W        W60782   7.782  18.759   7.460  0.0040 -0.0583 -0.1738
    1W        W60783  10.933   8.006   7.432 -0.2190 -0.0623 -0.2414
    1W        W60784  11.853  12.200   8.285 -0.3899  0.1062  0.1627
    1W        W60785  22.454  16.130   1.145  0.0789  0.0152  0.1736
    1W        W60786   1.053  18.258   7.304 -0.0223  0.4117 -0.1448
    1W        W60787   1.699   7.490   7.983  0.0572  0.4241  0.1504
    1W        W60788  14.820  24.421   6.829  0.4678 -0.3084  0.1909
    1W        W60789   2.707   4.458   0.212  0.0826  0.0733  0.1661
    1W        W60790   5.873  19.852   6.673  0.0997 -0.0245  0.1037
    1W        W60791   3.713  21.521   6.852  0.3127 -0.0516  0.0060
    1W        W60792   7.376  15.291   1.031  0.0298  0.0402 -0.0940
    1W        W60793  28.989  18.518   8.728 -0.1754  0.1688 -0.1768
    1W        W60794   9.015  16.601   0.178  0.1896  0.1085 -0.0801
    1W        W60795  23.551  28.398   1.777 -0.1120 -0.2084 -0.0995
    1W        W60796   7.570  13.330   0.663  0.1897 -0.0097 -0.0936
    1W        W60797   3.717  27.608   0.431  0.4337 -0.0518  0.0067
    1W        W60798  20.534  17.992   7.738  0.1642 -0.0468  0.0192
    1W        W60799  27.422  12.991   9.216  0.2084  0.0237 -0.2253
    1W        W60800  21.921  13.002   7.294 -0.1443 -0.0249 -0.0629
    1W        W60801  15.191  14.848   1.250  0.0474  0.2785 -0.1806
    1W        W60802   4.869  13.885   2.434  0.1064 -0.1598 -0.0979
    1W        W60803  25.420  27.719   0.054 -0.1207  0.2802  0.0933
    1W        W60804   2.717  24.179   5.962  0.3728 -0.3136 -0.0261
    1W        W60805  10.131  10.664   7.517  0.1929  0.3860 -0.3547
    1W        W60806  13.986  22.354   6.223 -0.0368 -0.1613 -0.0676
    1W        W60807  27.512  20.325   2.512 -0.2296 -0.0517  0.2379
    1W        W60808  22.134  20.233   0.165 -0.2159 -0.1201  0.3214
    1W        W60809   5.667   0.230   1.566  0.0628  0.0148  0.0669
    1W        W60810  21.222   8.994   8.773  0.2267 -0.0118 -0.2277
    1W        W60811  13.322  14.658   8.434 -0.0562  0.4861  0.2512
    1W        W60812  15.549  17.885   7.731  0.1017  0.3293 -0.3840
    1W        W60813  21.833   9.688   8.981  0.1124  0.0586 -0.0243
    1W        W60814  25.477   3.013   2.198  0.3197 -0.4391 -0.0559
    1W        W60815  29.384  12.633   8.150 -0.1451 -0.2239 -0.2646
    1W        W60816   8.675  10.034   2.448 -0.1745 -0.0423  0.1079
    1W        W60817  27.729  18.696   6.350 -0.1291  0.0774 -0.0667
    1W        W60818  10.976  17.096   0.403  0.2242  0.0796  0.1183
    1W        W60819  19.510  10.340   0.724  0.1156  0.0632  0.1870
    1W        W60820   9.105  14.032   6.685  0.1351  0.0020  0.0808
    1W        W60821  25.550   5.505   1.705  0.2817  0.1135 -0.1770
    1W        W60822  24.043  24.347   0.552  0.0315 -0.0366 -0.0678
    1W        W60823  29.352   4.354   8.345 -0.3033 -0.2071  0.0777
    1W        W60824  20.908  24.230   8.768 -0.2875 -0.2858  0.1456
    1W        W60825  16.689  25.070   8.159 -0.0482  0.2348  0.0928
    1W        W60826  27.258  19.205   6.691 -0.3925 -0.1103 -0.1458
    1W        W60827  28.117  19.396   0.210  0.0030  0.2835 -0.3853
    1W        W60828   5.913   9.602   7.895 -0.1569  0.3361  0.1845
    1W        W60829   4.698  16.138   0.795 -0.0879  0.0465 -0.0085
    1W        W60830   0.853   9.206   8.327  0.0383  0.1621 -0.1284
    1W        W60831  16.811  25.882   1.526  0.1395 -0.1596 -0.0495
    1W        W60832  17.828  28.412   1.193  0.3758 -0.1291  0.1298
    1W        W60833  10.888   7.381   0.471 -0.0248  0.1635  0.2471
    1W        W60834  26.529  18.111   6.839  0.0921  0.0266  0.3412
    1W        W60835  18.384  21.445   7.703 -0.3395 -0.0637 -0.0132
    1W        W60836  12.881  16.946   6.373 -0.0945  0.2473 -0.1882
    1W        W60837   6.866  29.401   1.033 -0.1899  0.1188 -0.2428
    1W        W60838   6.240  27.894   6.864 -0.1247  0.1501 -0.1538
    1W        W60839  16.415  22.521   5.052  0.2979  0.3030 -0.2761
    1W        W60840   0.244  11.583   7.539 -0.1600 -0.0959 -0.0591
    1W        W60841  14.649  25.017   8.997  0.0665  0.1168 -0.0134
    1W        W60842  23.330  16.783   8.076 -0.2337 -0.0079  0.1141
    1W        W60843  28.615  19.135   6.639 -0.1147 -0.1082  0.2900
    1W        W60844  16.241  22.133   0.311  0.1852  0.2344 -0.1249
    1W        W60845  13.088  20.900   7.706 -0.2062  0.1397 -0.0457
    1W        W60846   3.437  11.426   0.608  0.2542  0.1333  0.1919
    1W        W60847   4.281  15.316   1.874  0.1621 -0.0844 -0.0688
    1W        W60848   0.704   8.451   2.713 -0.0458 -0.1360 -0.0466
    1W        W60849   9.864  24.032   6.671  0.1678 -0.2009  0.4365
    1W        W60850   5.266   9.421   1.753  0.1303  0.2585 -0.1892
    1W        W60851   0.434  14.128   1.356 -0.1103 -0.0660 -0.2473
    1W        W60852  25.864  13.890   9.059 -0.2223  0.1063 -0.0988
    1W        W60853   4.494   1.283   6.640  0.3307  0.2498  0.1772
    1W        W60854  13.855  12.495   0.376  0.0468  0.0054  0.1905
    1W        W60855   9.023   4.471   7.905  0.1635  0.1741 -0.2182
    1W        W60856  15.272  20.958   9.318 -0.2456  0.2580  0.1316
    1W        W60857   5.023  14.311   6.601  0.2559 -0.1321  0.0654
    1W        W60858   5.633  17.391   1.938 -0.3351 -0.2434 -0.3433
    1W        W60859  22.656  11.857   0.027  0.1772  0.0317  0.0307
    1W        W60860   2.732   3.382   6.996  0.0391  0.4046  0.0439
    1W        W60861   1.191   3.648   1.747 -0.0249  0.0954  0.1286
    1W        W60862  12.955   0.370   8.764  0.0266  0.3332  0.0835
    1W        W60863  22.314  22.770   6.811  0.2192 -0.1692 -0.2137
    1W        W60864  23.275  27.860   2.826 -0.0429  0.2200 -0.1849
    1W        W60865  17.534  11.414   7.940  0.2572  0.2273  0.2485
    1W        W60866  29.122  16.017   1.473 -0.0163 -0.2087 -0.0213
    1W        W60867   9.735   9.721   3.339  0.2894 -0.0181  0.3033
    1W        W60868  23.252   7.235   7.998  0.0733 -0.1078  0.1021
    1W        W60869  13.897  17.624   6.949  0.1875 -0.1427 -0.0273
    1W        W60870  28.654  14.698   1.288 -0.2024 -0.2845  0.0464
    1W        W60871  26.747   0.640   7.863 -0.2212  0.0440  0.0793
    1W        W60872  26.329   3.348   1.236  0.1515 -0.0522 -0.0267
    1W        W60873  11.727  23.291   1.328  0.0708  0.1586  0.0958
    1W        W60874  12.461  27.938   7.399  0.0293  0.0948 -0.1606
    1W        W60875   8.391  12.579   1.569  0.2122 -0.0011 -0.0009
    1W        W60876  19.707  17.868   8.132  0.0623 -0.0379  0.1637
    1W        W60877  13.572  27.761   9.181  0.2074 -0.0902  0.3112
    1W        W60878   1.608  25.424   1.424  0.0157  0.0296 -0.4363
    1W        W60879   6.209  16.280   9.010  0.0989  0.1977 -0.0728
    1W        W60880  27.259  28.063   5.909  0.2474 -0.0374 -0.5157
    1W        W60881  15.150   4.926   0.358  0.0638  0.0394 -0.1531
    1W        W60882  15.909  29.364   2.974 -0.0575 -0.0693  0.0223
    1W        W60883   9.148  10.692   0.723 -0.0428  0.2208 -0.0485
    1W        W60884  24.906  11.030   8.231  0.2256 -0.3647  0.1503
    1W        W60885  25.115  21.910   3.210 -0.2960 -0.2277 -0.2115
    1W        W60886   4.969   5.598   8.494 -0.3307 -0.0153  0.1093
    1W        W60887   8.014  12.371   6.494 -0.3556  0.2217 -0.2101
    1W        W60888  23.010  19.001   7.274 -0.0623 -0.1157  0.2378
    1W        W60889   8.597   7.959   8.756  0.1178  0.0400  0.3686
    1W        W60890  22.706  25.555   8.152 -0.0431 -0.1155  0.0467
    1W        W60891  28.880  21.651   2.056 -0.1812  0.0751 -0.1907
    1W        W60892  19.610   6.184   2.782  0.0359 -0.3105 -0.2881
    1W        W60893  29.832  22.160   0.042  0.2442 -0.1951  0.0748
    1W        W60894  21.453  20.078   8.592 -0.1936 -0.2528 -0.1285
    1W        W60895  10.801  26.765   1.906  0.0902 -0.2153  0.1697
    1W        W60896   1.114   2.337   1.139 -0.0023 -0.1726 -0.0169
    1W        W60897   3.923  19.387   7.337 -0.3115  0.0577 -0.1398
    1W        W60898  17.833   1.240   3.385  0.1604 -0.1325 -0.0780
    1W        W60899   6.750  10.154   0.498  0.1391  0.0391  0.1879
    1W        W60900   4.260  24.760   7.695 -0.0942 -0.0073 -0.0454
    1W        W60901  28.809  22.649   6.931 -0.0853  0.1523  0.1717
    1W        W60902  15.062  11.763   7.400  0.1972  0.2197 -0.0259
    1W        W60903   7.645  19.635   6.286 -0.0389 -0.0302  0.0227
    1W        W60904  16.840  27.815   6.937  0.0510  0.4071 -0.0008
    1W        W60905  27.917   2.569   1.205  0.5123  0.1097  0.4211
    1W        W60906  16.746  28.755   2.139  0.3007 -0.0150 -0.1462
    1W        W60907  15.847  25.686   2.414  0.2764  0.1574  0.3603
    1W        W60908   3.462  24.612   8.128 -0.4356 -0.2063  0.0818
    1W        W60909  25.715  29.121   7.142  0.0298  0.1001 -0.2016
    1W        W60910  21.178  13.665   7.449 -0.1437 -0.2040  0.0258
    1W        W60911  22.982   3.143   1.433 -0.2966  0.0511 -0.2109
    1W        W60912  15.400  19.037   8.678 -0.2885 -0.1279 -0.1621
    1W        W60913  14.123  26.671   6.663 -0.0628 -0.1367  0.0614
    1W        W60914  15.207   5.496   2.544  0.0968 -0.0049 -0.2334
    1W        W60915  22.502  20.420   1.443  0.3462  0.0676  0.1062
    1W        W60916   0.660  29.220   6.132  0.0601 -0.0500  0.1481
    1W        W60917   5.567   4.102   1.505 -0.0869  0.3330  0.1947
    1W        W60918  23.197   9.113   1.345 -0.1280 -0.0495 -0.3394
    1W        W60919  25.159  13.852   8.167 -0.1654  0.1577  0.0722
    1W        W60920  25.759  15.177   0.695 -0.0543  0.2177  0.0050
    1W        W60921   7.844  21.160   6.646  0.1059  0.1476 -0.1341
    1W        W60922  10.847  17.991   8.995 -0.0792 -0.3754 -0.0819
    1W        W60923  24.555   3.619   3.208 -0.2242  0.0520 -0.0392
    1W        W60924  21.707  20.025   9.403  0.1385 -0.0627  0.3176
    1W        W60925  19.353  15.749   0.125  0.1511  0.0527 -0.0970
    1W        W60926   9.805  22.152   8.370 -0.0811  0.3820  0.0240
    1W        W60927   3.540   4.809   7.539 -0.0975  0.0125 -0.0343
    1W        W60928   6.339  24.328   7.361 -0.0845 -0.3910  0.0840
    1W        W60929  23.373  27.021   8.930 -0.1104 -0.2153 -0.2068
    1W        W60930  11.055   5.098   1.448 -0.1849 -0.0748  0.1258
    1W        W60931   1.393  27.373   7.825  0.2247  0.0382  0.1106
    1W        W60932   2.773   0.176   7.576 -0.0994  0.2114  0.0250
    1W        W60933  19.844  27.941   2.312 -0.0481 -0.1539  0.1263
    1W        W60934  27.225  18.484   0.540  0.0075  0.0755  0.2577
    1W        W60935  23.429  27.486   0.663  0.6652  0.2224  0.3577
    1W        W60936  12.129  23.886   9.026  0.2458  0.3889  0.1314
    1W        W60937   8.224  25.305   9.060 -0.0646 -0.0240 -0.1346
    1W        W60938  15.508   6.878   9.347 -0.0139  0.1178 -0.1247
    1W        W60939  29.580   2.399   7.788  0.1076 -0.0510  0.3382
    1W        W60940  21.625  22.149   7.610 -0.2149 -0.0483  0.3237
    1W        W60941  16.229   8.515   8.609  0.0826  0.4191  0.0043
    1W        W60942  10.455  29.165   0.730 -0.4687  0.0328  0.2375
    1W        W60943  23.991  27.739   7.129  0.1007  0.0496 -0.5273
    1W        W60944  20.879  16.165   8.951 -0.1698 -0.3509 -0.0634
    1W        W60945   5.750  27.901   5.648 -0.2671  0.2661  0.0555
    1W        W60946  15.212  24.765   1.621 -0.1004  0.2859  0.0642
    1W        W60947  11.349  10.009   0.768 -0.0637  0.1401  0.0226
    1W        W60948   6.539   5.619   2.885 -0.2622 -0.3245  0.1378
    1W        W60949   8.696  26.596   7.231 -0.3427 -0.0401 -0.0304
    1W        W60950   4.164   1.924   1.026  0.1718 -0.0791  0.0384
    1W        W60951  28.835  29.253   0.819  0.4336 -0.5044 -0.0468
    1W        W60952  12.074   9.249   8.463 -0.1731 -0.0098 -0.1029
    1W        W60953   9.138   5.107   7.774  0.1593  0.1588 -0.0809
    1W        W60954   3.486  26.069   7.224 -0.0011  0.0393 -0.1537
    1W        W60955  18.975  27.378   8.589  0.1889 -0.2204 -0.3850
    1W        W60956   4.341   3.441   0.800  0.0782 -0.3678 -0.0756
    1W        W60957  27.121  15.386   7.479  0.3623  0.0783 -0.1932
    1W        W60958  28.184  16.523   7.429 -0.1973 -0.0981 -0.0648
    1W        W60959   0.796   5.918   7.626 -0.2120  0.3782 -0.1892
    1W        W60960  11.868  11.172   6.662  0.1453 -0.0844  0.0092
    1W        W60961   4.177  25.304   7.480  0.0697 -0.0124  0.1005
    1W        W60962   3.369  16.348   7.261 -0.0421  0.0633 -0.0053
    1W        W60963  24.319   6.885   3.813 -0.0866  0.3775  0.0221
    1W        W60964  22.001  10.114   1.807  0.0738  0.2182  0.2162
    1W        W60965  18.270   9.950   7.491 -0.2438 -0.2527 -0.0937
    1W        W60966  22.213  17.177   6.117  0.2186 -0.0545 -0.1801
    1W        W60967  25.037  20.834   7.306  0.1723  0.3180  0.2290
    1W        W60968   8.822  17.837   1.996  0.0163  0.1645  0.1425
    1W        W60969  11.278   0.545   8.067 -0.2887 -0.0753 -0.0012
    1W        W60970  13.259  23.643   9.321 -0.1896  0.0257  0.2634
    1W        W60971   8.361  24.755   8.958 -0.0661 -0.0372 -0.1595
    1W        W60972  24.543   5.604   7.828  0.1221 -0.1910 -0.3446
    1W        W60973  14.329   4.238   9.065  0.2373  0.2492 -0.0678
    1W        W60974   4.636  11.211   6.339 -0.1040 -0.0480 -0.0761
    1W        W60975   8.613  12.628   2.644 -0.3391 -0.1978  0.3203
    1W        W60976  15.123  22.040   0.215 -0.0289  0.1543 -0.3291
    1W        W60977  18.356  25.550   7.645  0.0828  0.2664  0.0853
    1W        W60978  22.675   8.274   1.056  0.3827  0.0764 -0.0623
    1W        W60979   4.495  10.505   7.121 -0.0413  0.0179 -0.0389
    1W        W60980  24.724  25.591   8.692  0.1697  0.0272 -0.2037
    1W        W60981  27.776  21.851   0.558  0.3226 -0.1091 -0.0991
    1W        W60982   8.824   2.246   0.036  0.2276  0.1567 -0.2110
    1W        W60983  11.953   8.216   1.196  0.0684  0.0675  0.0852
    1W        W60984  26.015  13.704   0.386  0.2408  0.0183 -0.3730
    1W        W60985  24.314  23.033   0.292  0.1766  0.1728 -0.0876
    1W        W60986  10.925   9.827   1.801 -0.3988 -0.2055 -0.3190
    1W        W60987  28.738  19.783   1.422 -0.2778 -0.1413 -0.1771
    1W        W60988  19.367  12.820   1.879  0.0335  0.0400  0.0444
    1W        W60989   3.978  19.258   2.797  0.1304  0.1463  0.1797
    1W        W60990  25.807  27.730   8.747 -0.0229 -0.2778 -0.2186
    1W        W60991  16.001  24.018   1.192 -0.2323  0.0624  0.2766
    1W        W60992  11.850  22.326   7.285  0.1591  0.0896  0.4127
    1W        W60993  14.481  13.050   9.005 -0.1591 -0.0710  0.2326
    1W        W60994  27.789  23.997   2.468  0.2522 -0.2577  0.0680
    1W        W60995   9.784  22.592   9.355 -0.1062 -0.0510  0.3472
    1W        W60996   7.331  29.700   8.280 -0.2651  0.1851  0.0598
    1W        W60997   2.741  23.850   0.653  0.0808 -0.0676 -0.3157
    1W        W60998  14.754   2.999   2.993  0.1832 -0.1680 -0.2567
    1W        W60999  23.631   9.924   7.601 -0.1369 -0.1241  0.1153
    1W        W61000  22.771  13.903   9.236 -0.1894 -0.1168 -0.0192
    1W        W61001  17.247  23.378   8.308 -0.1128  0.1470 -0.3590
    1W        W61002  10.316   9.051   7.045 -0.0371  0.0524  0.1997
    1W        W61003  10.979  16.566   8.265  0.6404 -0.3724 -0.1384
    1W        W61004   5.364   1.192   5.806 -0.1067 -0.1385  0.2579
    1W        W61005   6.609  21.277   5.915  0.3252  0.0650 -0.2441
    1W        W61006  29.249  16.035   2.886 -0.2737  0.0455 -0.2618
    1W        W61007  27.759   8.615   8.177 -0.1872 -0.3273 -0.0857
    1W        W61008  17.573  22.047   6.261  0.1229  0.0393 -0.1460
    1W        W61009  28.794  26.804   6.678 -0.0438 -0.1309  0.1143
    1W        W61010  17.602   6.299   2.691 -0.0736  0.3073  0.3692
    1W        W61011  21.370  25.742   3.031  0.1467  0.0341 -0.0294
    1W        W61012   5.810  24.236   5.827 -0.0198 -0.0535  0.0472
    1W        W61013   2.512  24.720   8.572 -0.1216 -0.2669 -0.1880
    1W        W61014   8.170   9.744   1.156 -0.0766  0.0402 -0.0804
    1W        W61015   8.297  27.976   6.713  0.2074  0.0351 -0.1091
    1W        W61016  14.373   6.846   3.810 -0.0427 -0.1540  0.1687
    1W        W61017   6.052  15.727   1.367 -0.2134  0.2595 -0.0146
    1W        W61018  23.978   4.050   8.733 -0.1231  0.1348 -0.3882
    1W        W61019   3.570  25.727   5.551 -0.1576 -0.0013  0.0996
    1W        W61020   6.336  26.774   8.028  0.1206 -0.1850 -0.0730
    1W        W61021   7.396  22.280   9.425  0.1031 -0.0353  0.0124
    1W        W61022  14.541  14.548   0.255 -0.1810 -0.0274 -0.1228
    1W        W61023  17.273  26.722   2.101  0.0374  0.0577 -0.0039
    1W        W61024   1.292  20.539   0.417 -0.0170 -0.0200 -0.4421
    1W        W61025  24.004  11.085   1.275 -0.1491 -0.0136 -0.4237
    1W        W61026   2.400  21.509   0.141  0.1737  0.2639 -0.1686
    1W        W61027  24.178  25.850   8.909 -0.0541 -0.0527 -0.2718
    1W        W61028  11.475  28.604   8.029 -0.2882  0.0251 -0.0191
    1W        W61029  27.852  21.789   2.588  0.0389  0.0029  0.2115
    1W        W61030   0.545  28.172   8.715 -0.1415  0.1325  0.1172
    1W        W61031  27.729  14.381   1.070  0.1749  0.0840  0.1295
    1W        W61032   7.324  19.109   7.618 -0.0607  0.0223  0.0714
    1W        W61033  25.997  19.833   6.309  0.0194 -0.3353 -0.1556
    1W        W61034  11.372  23.040   5.665  0.1586 -0.1916  0.1015
    1W        W61035  10.541   5.775   1.778 -0.2294  0.1156 -0.1806
    1W        W61036   3.572  25.339   0.867 -0.0873 -0.4434 -0.3283
    1W        W61037  26.877   7.704   1.014 -0.3496  0.1253  0.3208
    1W        W61038  14.223   3.193   8.322 -0.2862 -0.1566 -0.0369
    1W        W61039  18.686  25.370   0.113  0.0131 -0.3001 -0.0428
    1W        W61040  22.195  23.457   1.033  0.1133 -0.0962 -0.2452
    1W        W61041   4.120  25.182   0.233  0.1210 -0.1363  0.1005
    1W        W61042   9.239  11.834   8.170  0.1355  0.2357 -0.0085
    1W        W61043   5.277  18.438   8.121  0.0263 -0.1924 -0.3187
    1W        W61044   8.040  21.202   6.156 -0.0450 -0.4642 -0.3427
    1W        W61045   8.842   5.023   2.496  0.0570 -0.1501 -0.0343
    1W        W61046   4.532  28.440   1.232 -0.0885  0.2693  0.2402
    1W        W61047  21.000  19.421   8.133  0.0738  0.3285  0.0176
    1W        W61048  27.640  14.732   9.072  0.3036  0.0349  0.0848
    1W        W61049  15.799  17.151   8.141 -0.2282  0.0399 -0.1161
    1W        W61050   0.462   1.557   1.447 -0.0039  0.4064 -0.2720
    1W        W61051   0.591  13.073   9.354 -0.0673  0.2063  0.0949
    1W        W61052   9.728   3.763   7.643 -0.1417 -0.0764 -0.1647
    1W        W61053  18.449   2.394   0.072 -0.0608 -0.0485 -0.2594
    1W        W61054  26.849  25.027   7.255 -0.1224  0.0671  0.1348
    1W        W61055  21.361   2.969   2.777 -0.1422 -0.1287 -0.0924
    1W        W61056  26.410  10.147   9.034 -0.0473  0.0625 -0.1655
    1W        W61057  27.529  26.840   8.022  0.3410 -0.0387  0.2451
    1W        W61058   6.925  28.885   0.939  0.1269 -0.1180 -0.0635
    1W        W61059   5.787  29.341   2.505  0.0250 -0.0880 -0.0445
    1W        W61060  15.663  13.861   9.078  0.3354  0.0532 -0.0962
    1W        W61061   8.175  23.582   7.199  0.1366 -0.1079  0.3561
    1W        W61062   7.511   0.331   8.937  0.3720 -0.0108 -0.0788
    1W        W61063  15.908  12.285   1.622  0.2580 -0.3990  0.1464
    1W        W61064  19.236  25.372   6.380 -0.2244  0.0011  0.1576
    1W        W61065   8.223  29.801   8.615 -0.0782  0.0964 -0.2292
    1W        W61066  10.194   3.846   4.176 -0.2072  0.3056  0.1007
    1W        W61067   9.351   3.127   2.307 -0.0161  0.0705 -0.0458
    1W        W61068   3.405   2.420   9.238  0.0049  0.0067 -0.1723
    1W        W61069   9.156  18.543   7.856  0.3726 -0.1335 -0.2099
    1W        W61070   4.915  28.616   1.541 -0.0311 -0.1636 -0.0531
    1W        W61071  17.369  22.664   1.719 -0.0285  0.2022 -0.0865
    1W        W61072  25.413  23.444   7.785 -0.0950  0.1970 -0.0834
    1W        W61073   9.525  15.520   6.732 -0.3988  0.1415 -0.0678
    1W        W61074   7.983   3.014   1.816 -0.1908  0.4126  0.1855
    1W        W61075  12.846  18.323   8.464  0.0678  0.0079  0.0211
    1W        W61076  15.339  27.351   2.484 -0.3299 -0.1854  0.1788
    1W        W61077  13.877  10.392   8.970 -0.2643  0.0326 -0.1706
    1W        W61078  20.196  28.248   6.730 -0.0628 -0.1207  0.0426
    1W        W61079  15.991  21.457   1.111  0.0141 -0.1449 -0.0826
    1W        W61080  24.324  25.693   1.990 -0.3973  0.1242 -0.0709
    1W        W61081   0.200  26.793   8.131 -0.3199 -0.3459 -0.1779
    1W        W61082  23.668  27.637   2.550 -0.0016  0.0997  0.1708
    1W        W61083   2.981  28.879   7.721  0.0052  0.1621  0.1293
    1W        W61084  16.855  29.853   3.581  0.1834  0.0563  0.0825
    1W        W61085  27.268  27.832   2.202  0.1566 -0.1346 -0.1303
    1W        W61086   7.913  12.209   7.028  0.0014 -0.1248 -0.2561
    1W        W61087  14.250   8.777   0.822 -0.1136 -0.1885  0.3285
    1W        W61088  10.342   9.346   0.801  0.2668  0.1372 -0.0866
    1W        W61089   3.260  29.811   2.350  0.2043 -0.1082 -0.2270
    1W        W61090  14.603  14.134   1.669 -0.0524  0.0087 -0.3216
    1W        W61091   1.078   4.104   9.162  0.1273  0.0978 -0.1167
    1W        W61092  26.277  17.238   6.776 -0.1602  0.0816 -0.1997
    1W        W61093  18.540   3.892   2.449  0.0690  0.1623 -0.0179
    1W        W61094   0.598  23.280   1.457  0.2087  0.0006  0.1327
    1W        W61095  11.763   7.839   0.112 -0.2893 -0.0790  0.3535
    1W        W61096   9.198  26.511   6.071 -0.0718 -0.1438  0.3640
    1W        W61097  15.394  26.613   9.256  0.0953  0.1279 -0.1243
    1W        W61098  11.852  22.483   8.612 -0.0862 -0.2887  0.0198
    1W        W61099  16.772  26.763   1.370 -0.0681 -0.1724  0.1383
    1W        W61100   3.132  19.524   1.109  0.3942 -0.0754 -0.1253
    1W        W61101  18.165   0.001   0.620 -0.0739  0.0622  0.1310
    1W        W61102   4.002  22.450   8.376  0.1223  0.0334  0.3055
    1W        W61103  10.527   0.223   6.744 -0.2339 -0.0584 -0.1166
    1W        W61104  26.162  15.649   1.532 -0.4527 -0.0471 -0.1806
    1W        W61105   5.740  19.364   6.763 -0.1102 -0.3482 -0.3381
    1W        W61106  28.647   9.119   8.992  0.0003  0.0615 -0.1249
    1W        W61107  12.457  20.441   6.319 -0.3689 -0.1896  0.0054
    1W        W61108  18.426  19.828   0.738  0.1566  0.0191  0.0738
    1W        W61109  14.793  21.162   9.243 -0.2550 -0.1510  0.0627
    1W        W61110  17.169  23.720   0.323  0.0163 -0.0299  0.0982
    1W        W61111  18.032  12.989   8.584  0.0014  0.2320  0.0584
    1W        W61112  13.692   4.821   0.103 -0.1855  0.2158  0.2930
    1W        W61113  27.174  17.052   7.032  0.1344  0.0326 -0.0487
    1W        W61114   4.088  13.282   6.486  0.0585  0.1991 -0.1668
    1W        W61115  22.846  13.943   1.187 -0.0062  0.2056  0.1867
    1W        W61116   9.950  24.074   0.588 -0.2580  0.0620  0.0558
    1W        W61117  16.112  19.257   6.608  0.1470  0.0057  0.0383
    1W        W61118  23.542  24.800   9.499 -0.1163 -0.1822 -0.1988
    1W        W61119  16.898  11.655   0.520  0.0012  0.1798 -0.0576
    1W        W61120   2.106  15.284   0.360  0.2296 -0.1260  0.1678
    1W        W61121  13.420  11.385   8.033  0.1452  0.0415 -0.2218
    1W        W61122   8.856  13.613   9.121  0.0381 -0.2646 -0.0092
    1W        W61123  19.263  27.221   6.796 -0.0716 -0.2346  0.0526
    1W        W61124  18.340   0.530   8.859 -0.1110 -0.0147 -0.5021
    1W        W61125  21.171  18.205   6.908 -0.0641 -0.2937 -0.0153
    1W        W61126   3.741  11.998   1.304 -0.3825 -0.5354 -0.0133
    1W        W61127  13.284  20.718   0.556  0.3604  0.0474  0.1956
    1W        W61128  12.267   8.556   1.244  0.0579  0.1055  0.0144
    1W        W61129  15.995   6.621   9.406 -0.0995  0.1170  0.2142
    1W        W61130  19.126  16.212   7.870 -0.0294  0.0226 -0.2341
    1W        W61131  12.027  26.660   8.672 -0.1759 -0.0060 -0.1450
    1W        W61132   6.481  16.508   9.529 -0.1386 -0.0369  0.0323
    1W        W61133   4.188  28.876   1.013 -0.2453 -0.0060 -0.2482
    1W        W61134   3.848  23.815   1.081  0.1108 -0.0647 -0.1625
    1W        W61135  21.027   6.266   0.091 -0.3887 -0.2323 -0.1766
    1W        W61136  24.653  13.656   7.422 -0.0681 -0.1175 -0.0009
    1W        W61137   5.319  17.707   7.322  0.1383 -0.5132  0.1336
    1W        W61138  13.930  29.340   9.424  0.0327  0.1593  0.0431
    1W        W61139   2.111  16.217   9.317 -0.0226 -0.0250 -0.2788
    1W        W61140  24.848  28.141   2.022 -0.1270 -0.1316  0.0481
    1W        W61141  10.099  20.287   5.637  0.1562 -0.1653  0.1053
    1W        W61142   5.221  11.178   2.680 -0.0087  0.1835 -0.0657
    1W        W61143   7.805   4.607   7.915  0.1097  0.0277 -0.1918
    1W        W61144  27.048   0.924   2.604  0.1886 -0.0279  0.1586
    1W        W61145   0.742  18.087   7.694 -0.0040 -0.2513 -0.0840
    1W        W61146   0.508  17.335   1.748 -0.0779 -0.0395 -0.1194
    1W        W61147   1.569   5.462   0.984  0.0818 -0.3584  0.2465
    1W        W61148  24.653  16.615   9.235  0.2424 -0.1539 -0.1992
    1W        W61149  22.482  28.888   3.470  0.3005 -0.0333 -0.2677
    1W        W61150  18.724  23.207   0.735 -0.3322  0.0229 -0.0214
    1W        W61151  15.080  23.137   0.432 -0.1057  0.2359 -0.2279
    1W        W61152  20.514  16.375   0.419 -0.0905  0.4223  0.1399
    1W        W61153  28.458  26.714   5.844  0.2668  0.2898  0.1364
    1W        W61154  26.089   3.066   0.339  0.0593 -0.0783 -0.2028
    1W        W61155  27.022  21.182   2.292  0.0968 -0.0738  0.0190
    1W        W61156  15.295  17.738   9.443  0.0228  0.0574  0.0351
    1W        W61157  22.464  16.081   8.673 -0.0066  0.0528 -0.0271
    1W        W61158  22.582  18.024   2.405  0.2788 -0.0500 -0.0559
    1W        W61159  14.968   1.963   0.467  0.1895 -0.2956  0.0579
    1W        W61160  26.093  28.605   8.460  0.2257 -0.1624 -0.1062
    1W        W61161   8.060   7.370   0.636 -0.0694  0.0253  0.0438
    1W        W61162  18.197   1.713   0.672 -0.0994  0.0858  0.2205
    1W        W61163   5.711  14.320   7.858 -0.0592 -0.2536  0.2596
    1W        W61164   1.138  13.648   7.278  0.0465  0.0850  0.2601
    1W        W61165  23.528   1.867   9.277 -0.1412 -0.0893 -0.1374
    1W        W61166   2.578  19.817   9.500 -0.0397 -0.0577 -0.0050
    1W        W61167  20.484  12.546   7.812  0.0267 -0.0372 -0.6190
    1W        W61168   5.048  27.778   6.326  0.0948  0.2153 -0.1576
    1W        W61169   7.348  14.129   7.449  0.0836 -0.3709  0.0197
    1W        W61170  28.091  24.308   8.380 -0.1612  0.0566 -0.0321
    1W        W61171  10.120   8.977   8.774  0.3003 -0.1220 -0.0471
    1W        W61172  13.590  24.903   7.053  0.1959  0.1553 -0.0874
    1W        W61173  17.415   3.411   0.819 -0.1526  0.0816 -0.1002
    1W        W61174   7.715  28.728   9.441 -0.0500  0.2834  0.0403
    1W        W61175   1.775   8.956   1.936 -0.2854 -0.0056  0.0471
    1W        W61176  21.461   0.341   8.146  0.2623 -0.0057 -0.1720
    1W        W61177  20.779  16.841   2.505  0.0353 -0.1001 -0.1157
    1W        W61178  28.380  14.621   7.822 -0.0803 -0.1171 -0.1041
    1W        W61179  12.228   7.642   7.250  0.1229  0.2527 -0.0434
    1W        W61180   8.931  14.403   0.759  0.1414 -0.1998 -0.2648
    1W        W61181  18.814  12.790   0.067 -0.0128 -0.0043  0.0969
    1W        W61182  22.121  14.919   8.762 -0.0349 -0.2891 -0.1216
    1W        W61183   7.393  15.991   6.223  0.0720  0.0849 -0.0504
    1W        W61184  20.380   8.439   1.737  0.3099  0.1214  0.0656
    1W        W61185  10.564  19.019   0.701  0.0761  0.0970  0.2170
    1W        W61186   7.765   8.384   8.973 -0.2379 -0.2378  0.0410
    1W        W61187  13.348  18.485   7.164 -0.4380  0.3002  0.0608
    1W        W61188  19.632   1.023   7.928 -0.3535  0.0239 -0.0244
    1W        W61189  19.391  10.852   2.296 -0.1486  0.1171 -0.0926
    1W        W61190   4.358   2.475   8.298  0.2860  0.3091  0.2044
    1W        W61191  28.561  20.584   9.213  0.1348 -0.1285 -0.0185
    1W        W61192  11.684  24.741   6.570 -0.1263  0.0238  0.0559
    1W        W61193   2.523   4.652   1.084 -0.1018 -0.0379  0.0304
    1W        W61194  17.771  25.111   1.420 -0.0993 -0.2990 -0.1622
    1W        W61195   5.278   8.988   7.780 -0.1707  0.1944 -0.0935
    1W        W61196  20.074  11.659   2.428 -0.0235 -0.0765  0.1070
    1W        W61197   4.851  11.181   7.215  0.0910  0.0068  0.1857
    1W        W61198  24.338  28.916   7.180 -0.0772 -0.0967  0.3855
    1W        W61199   9.907   8.565   0.960  0.1785  0.0076  0.3245
    1W        W61200   3.268  21.359   9.498 -0.4309  0.1548 -0.0568
    1W        W61201   8.660  19.074   9.095  0.0347  0.1815 -0.2605
    1W        W61202   5.924  10.731   2.440  0.0613 -0.1175  0.0994
    1W        W61203   9.301  17.184   0.923 -0.0550  0.0171 -0.1361
    1W        W61204   2.972   1.109   7.245 -0.2684 -0.1022  0.0856
    1W        W61205  16.096   0.989   1.059  0.0937 -0.1915  0.0168
    1W        W61206   3.834  23.148   1.537 -0.3397  0.1802 -0.0101
    1W        W61207  15.554  22.934   0.415  0.1710 -0.1368  0.0153
    1W        W61208   4.501  12.641   2.398  0.1174  0.0973  0.0242
    1W        W61209   2.190  20.795   1.669  0.1951 -0.3539 -0.2389
    1W        W61210  27.349  19.030   9.135  0.1146  0.2093 -0.0049
    1W        W61211  10.757   6.205   1.976  0.1451 -0.0152 -0.1667
    1W        W61212  12.667  12.529   8.590 -0.0512 -0.2677 -0.0773
    1W        W61213  14.359   9.544   9.455  0.0107  0.1662 -0.1193
    1W        W61214   7.984  22.825   0.900  0.0201 -0.2991 -0.0786
    1W        W61215  20.471  25.266   0.422  0.0154 -0.2322 -0.0378
    1W        W61216   3.596   0.050   6.859 -0.1406  0.2594 -0.1475
    1W        W61217   8.999  11.427   9.483  0.0047  0.2756 -0.0553
    1W        W61218  26.039  17.830   9.399  0.0417 -0.0799  0.0946
    1W        W61219  10.891  26.674   8.307 -0.1211 -0.0831 -0.0868
    1W        W61220  17.970  11.083   1.279 -0.1303  0.1728  0.0595
    1W        W61221  10.560   3.545   8.579  0.0303 -0.2149 -0.2113
    1W        W61222  10.644  18.743   1.074 -0.0055  0.2576 -0.1530
    1W        W61223  19.725  21.978   7.444  0.1341 -0.0726 -0.0666
    1W        W61224  11.757   8.679   1.209 -0.2421  0.1251  0.2278
    1W        W61225   3.394   4.928   2.358 -0.1323 -0.4868 -0.1859
    1W        W61226   4.214   1.819   6.433 -0.0983 -0.4300  0.1211
    1W        W61227   4.960  18.153   3.508  0.0361  0.1267  0.2869
    1W        W61228  21.769   6.684   2.491  0.0222 -0.0898  0.3815
    1W        W61229  29.407  25.368   1.202 -0.0516  0.0136 -0.1004
    1W        W61230   9.990  21.017   9.368  0.0886 -0.3451  0.2141
    1W        W61231   7.503   9.054   9.471 -0.2209 -0.3205 -0.1312
    1W        W61232  20.854   6.701   9.306  0.1369 -0.0349 -0.1847
    1W        W61233  13.951   0.124   0.931  0.0930 -0.1101  0.2122
    1W        W61234  12.923  14.941   6.374  0.0897  0.1881 -0.0491
    1W        W61235  15.753   7.550   1.577 -0.1571  0.2520 -0.3208
    1W        W61236  16.665  17.226   0.286 -0.1769  0.0966 -0.0881
    1W        W61237   3.135   4.251   8.085 -0.1551 -0.0266  0.2002
    1W        W61238  12.069  27.214   8.457  0.2274 -0.0454 -0.3174
    1W        W61239  23.918   7.811   7.871 -0.0775  0.0426 -0.0197
    1W        W61240   8.372  28.941   2.499 -0.1219  0.0920 -0.0532
    1W        W61241  19.842  25.479   8.172 -0.1090 -0.3518 -0.0441
    1W        W61242  16.477  12.443   7.058 -0.1480  0.1413 -0.2912
    1W        W61243  24.512  17.950   6.789  0.0562 -0.0594 -0.2578
    1W        W61244  22.998   2.474   0.259 -0.0486 -0.0536  0.1591
    1W        W61245  19.660  19.316   8.962  0.1259 -0.1854  0.0949
    1W        W61246   9.903  19.163   8.166  0.0120 -0.2423  0.2066
    1W        W61247   6.674   9.252   3.116 -0.1449 -0.0862 -0.2244
    1W        W61248   6.997   7.856   9.164 -0.3557  0.0109  0.0307
    1W        W61249   4.811   9.765   1.918  0.2351 -0.2658  0.1844
    1W        W61250   3.881   9.309   1.885  0.0789 -0.0400 -0.0872
    1W        W61251   5.611   2.555   6.488  0.1284 -0.0882  0.2119
    1W        W61252  18.579  27.241   1.615  0.1240  0.0594  0.1447
    1W        W61253  26.052   3.346   7.455 -0.1109 -0.0347  0.2363
    1W        W61254  12.312  23.691   6.089  0.2452 -0.0708  0.3972
    1W        W61255   8.182  29.616   1.224  0.1475 -0.0305  0.0480
    1W        W61256   5.738   1.446   7.787  0.1205 -0.4900 -0.2317
    1W        W61257   7.821  15.079   8.539 -0.3258  0.0403 -0.0755
    1W        W61258   7.421  29.800   7.298 -0.4048  0.0629 -0.0860
    1W        W61259  17.427  16.439   8.734 -0.2403  0.0097  0.0529
    1W        W61260  28.844  25.818   8.846  0.1270  0.0991 -0.2883
    1W        W61261   4.324  25.575   7.909 -0.1395  0.0943  0.5162
    1W        W61262  24.533   4.000   2.900 -0.2051 -0.2375  0.1439
    1W        W61263  16.388  17.732   5.945  0.0488  0.2348  0.0295
    1W        W61264  11.410  25.234   9.259  0.1158  0.2021 -0.0455
    1W        W61265   3.362  19.470   7.331 -0.0250 -0.0913 -0.0605
    1W        W61266  19.750  17.144   8.417  0.1079 -0.0393  0.2070
    1W        W61267  11.938   8.073   9.189 -0.0628 -0.0171 -0.1936
    1W        W61268  22.796  11.802   7.183 -0.0801 -0.2306  0.0886
    1W        W61269  11.257  15.389   9.152 -0.0188 -0.3236  0.1130
    1W        W61270  12.666  13.905   8.621 -0.0810 -0.3286  0.6067
    1W        W61271  16.775   5.249   8.009  0.0224 -0.3150  0.1971
    1W        W61272   5.689  14.972   1.668  0.1381 -0.0328 -0.0043
    1W        W61273  20.896  29.218   8.639 -0.1493 -0.2489 -0.0556
    1W        W61274  19.854   6.174   8.454 -0.0097  0.0913  0.2473
    1W        W61275  10.961   0.557   7.213 -0.3484  0.1384  0.2044
    1W        W61276  29.139  17.808   0.046  0.2402  0.2873 -0.2283
    1W        W61277  16.914  21.191   5.111  0.1487 -0.0263  0.1204
    1W        W61278  21.960   7.683   0.704  0.4445  0.0656  0.1584
    1W        W61279   3.932  20.351   7.195 -0.3598  0.1673 -0.2366
    1W        W61280  11.359  15.069   6.824  0.0899 -0.1628  0.1014
    1W        W61281  29.821  19.364   0.586 -0.0800  0.5238  0.4113
    1W        W61282  20.889   7.961   1.661  0.1798 -0.2467  0.0799
    1W        W61283  29.221   8.407   2.325  0.0073 -0.0951  0.1981
    1W        W61284  24.285  11.268   2.057  0.0827  0.0168 -0.1992
    1W        W61285  26.196  16.845   8.333 -0.2988  0.2186 -0.1387
    1W        W61286   3.260   3.251   0.421  0.0243 -0.1032  0.2277
    1W        W61287   9.965  29.176   7.590  0.2802  0.1250  0.0758
    1W        W61288  13.509  18.607   1.542  0.1786  0.1259 -0.0186
    1W        W61289  17.982   7.316   0.629 -0.0594 -0.1970 -0.2934
    1W        W61290  20.543  10.339   9.034  0.0857  0.0018 -0.1018
    1W        W61291  22.887  10.658   7.235  0.2850 -0.0685 -0.1466
    1W        W61292  10.257   6.722   0.733 -0.1198  0.4959 -0.0451
    1W        W61293   0.001   6.666   2.543  0.1328  0.1603  0.0081
    1W        W61294  27.920  15.871   8.006 -0.1179 -0.2284 -0.0134
    1W        W61295   8.755   0.940   1.239 -0.0410  0.2675  0.2154
    1W        W61296   9.468  11.161   0.033  0.0653 -0.0867  0.2348
    1W        W61297  14.305  12.805   1.810 -0.0949 -0.3033 -0.1921
    1W        W61298  16.985  17.648   6.932 -0.0762  0.2148  0.0228
    1W        W61299   5.717  11.705   6.174  0.2032 -0.2696  0.0078
    1W        W61300  14.107  10.772   9.284  0.0567  0.0775 -0.0751
    1W        W61301   2.090  18.771   7.346 -0.1426 -0.0168 -0.1221
    1W        W61302   3.895  27.539   2.618 -0.0268  0.1647 -0.0944
    1W        W61303   5.494  19.651   2.171 -0.1278  0.5102  0.3214
    1W        W61304  25.119  14.134   3.020  0.0857  0.2447  0.0242
    1W        W61305  12.992  27.010   0.234  0.1025  0.1467 -0.2034
    1W        W61306   7.072   3.584   1.539 -0.0874 -0.1914 -0.1564
    1W        W61307  28.229  20.386   1.797 -0.0287 -0.0478  0.2336
    1W        W61308   2.180   4.031   7.694  0.3703  0.1493  0.1643
    1W        W61309  25.285   3.659   0.292 -0.0843  0.1657 -0.2985
    1W        W61310   8.906  27.465   1.247  0.1515 -0.0320  0.3024
    1W        W61311   8.750  10.617   9.132 -0.0220 -0.0961 -0.3792
    1W        W61312   9.174   9.230   0.080  0.0828  0.0820 -0.0317
    1W        W61313  15.190  27.034   0.085  0.2252  0.0946 -0.2850
    1W        W61314   5.557   4.553   0.201  0.3522  0.1779  0.1744
    1W        W61315   5.497  25.675   9.013  0.0363 -0.0598  0.1022
    1W        W61316   6.512  15.210   1.518  0.3359  0.1381 -0.3252
    1W        W61317  16.045  16.257   2.200 -0.1350 -0.1218 -0.0856
    1W        W61318   4.952  20.207   2.828  0.0615  0.3190 -0.2256
    1W        W61319  28.801  12.680   7.711 -0.1288 -0.0651  0.0272
    1W        W61320   1.016  17.070   1.690 -0.0168 -0.5637 -0.0609
    1W        W61321  14.791   4.336   8.851  0.0158 -0.0239  0.0501
    1W        W61322  13.165  24.179   6.616 -0.0070  0.2866 -0.0519
    1W        W61323  27.299   7.707   9.126  0.2261  0.0139  0.2238
    1W        W61324  28.311  23.366   8.340  0.2846  0.3399 -0.0959
    1W        W61325   1.540  28.226   8.110  0.2859 -0.1672  0.6648
    1W        W61326   3.768  26.704   5.902 -0.0810  0.0775 -0.0912
    1W        W61327  16.739   4.857   1.711  0.2774 -0.0105 -0.1748
    1W        W61328  15.437  23.282   0.026 -0.1138 -0.3004 -0.1469
    1W        W61329  13.346  20.084   8.136 -0.0710  0.3236 -0.0292
    1W        W61330   2.166  22.111   9.026  0.2090 -0.1076  0.0332
    1W        W61331  17.881  27.562   1.644  0.1335  0.1776  0.0239
    1W        W61332  16.083  19.612   8.012  0.0592  0.1876  0.1059
    1W        W61333  29.775   0.574   7.929  0.1014 -0.2771  0.0482
    1W        W61334  26.984   2.836   3.146  0.0497  0.2610 -0.3498
    1W        W61335   3.509  19.813   0.752  0.4226  0.1656 -0.1843
    1W        W61336   8.769   4.028   3.008  0.2554 -0.0307  0.4845
    1W        W61337  27.519  28.820   1.123  0.0722  0.0169 -0.0378
    1W        W61338  17.060  12.427   2.027 -0.1780 -0.0878 -0.3085
    1W        W61339  16.014  14.754   0.957  0.1624 -0.1127  0.0321
    1W        W61340  13.360  16.068   6.581 -0.0964  0.3579  0.1265
    1W        W61341  16.408  11.168   1.551  0.2301 -0.1687  0.0704
    1W        W61342   5.475  13.704   6.114 -0.3486  0.0484  0.2913
    1W        W61343   7.710   9.273   7.876 -0.2660  0.0297 -0.0779
    1W        W61344   7.948   6.159   0.011  0.1598  0.0431  0.0825
    1W        W61345  28.552  29.539   2.196 -0.1570  0.0452 -0.1548
    1W        W61346  27.878  18.798   2.036 -0.2579  0.0729 -0.0851
    1W        W61347  10.194  23.231   8.864 -0.0980 -0.2596 -0.0907
    1W        W61348   2.156  27.161   2.002  0.0828 -0.0751 -0.1334
    1W        W61349  17.437   2.475   2.679  0.0913 -0.0831  0.2970
    1W        W61350  24.655  11.293   1.708  0.0054 -0.2352 -0.0889
    1W        W61351  19.300  15.980   1.943 -0.0433  0.3714  0.1651
    1W        W61352   8.057  23.295   0.660 -0.0590  0.0541  0.1119
    1W        W61353   9.597  23.013   5.795 -0.0395  0.0976 -0.1541
    1W        W61354  24.160  19.872   0.681  0.2425 -0.0639  0.0493
    1W        W61355  26.834   5.693   1.620 -0.2357  0.3798  0.1283
    1W        W61356  26.439   6.715   7.572 -0.2660  0.2579  0.1774
    1W        W61357   3.342  19.009   2.272 -0.2927 -0.0112 -0.1749
    1W        W61358  19.231   1.516   9.514  0.1308  0.1698  0.0765
    1W        W61359  12.254  22.068   8.648  0.0166  0.1440  0.2752
    1W        W61360   0.469  25.882   2.114 -0.2649  0.1756  0.1722
    1W        W61361   4.956  16.931   7.705 -0.1721 -0.1812  0.0904
    1W        W61362  26.649   9.340   8.772  0.1382 -0.0870 -0.0301
    1W        W61363   2.422   6.875   0.528 -0.0484  0.0202 -0.1008
    1W        W61364  22.587  13.978   8.687  0.0908  0.1880  0.0912
    1W        W61365   0.230  29.729   6.876 -0.1320  0.4961  0.0169
    1W        W61366  23.005  22.061   1.395  0.3374  0.3138  0.0915
    1W        W61367  16.703  22.246   0.237 -0.0280 -0.1120 -0.1343
    1W        W61368   8.021   0.567   7.478  0.0178  0.1784  0.2362
    1W        W61369   2.560   8.810   0.298  0.0767 -0.2087 -0.0427
    1W        W61370  11.707   5.629   8.082  0.1095 -0.1491 -0.0716
    1W        W61371  10.022   0.488   6.989 -0.0556  0.2197  0.0166
    1W        W61372  27.255  15.807   2.141 -0.2412  0.0677  0.0191
    1W        W61373  17.465   4.713   7.987  0.3285  0.0743  0.1345
    1W        W61374   1.990   8.250   0.459  0.0416 -0.1377 -0.3100
    1W        W61375  15.619   9.116   7.900 -0.1071 -0.0736  0.0815
    1W        W61376  19.259   9.409   2.295  0.0986  0.0611  0.0297
    1W        W61377   6.089   1.687   6.958  0.0009  0.0559 -0.0995
    1W        W61378  29.254   9.961   6.652  0.1454 -0.2435 -0.0430
    1W        W61379  25.288  19.702   0.114  0.0623 -0.1713  0.1184
    1W        W61380  27.556  27.961   6.405  0.1198 -0.0327 -0.1994
    1W        W61381  15.402   5.359   1.542 -0.0362 -0.0872 -0.3839
    1W        W61382  24.243  13.429   0.914  0.0753 -0.0876 -0.0413
    1W        W61383   8.045  21.463   7.162 -0.0684  0.4670 -0.1546
    1W        W61384  27.070  13.136   1.130  0.1925  0.0416 -0.0509
    1W        W61385  16.615   0.200   0.879 -0.1640  0.1488  0.1608
    1W        W61386   4.807  18.833   9.042  0.1451  0.2285  0.0265
    1W        W61387   2.828  12.371   9.425 -0.0760  0.0058 -0.1086
    1W        W61388  12.237  29.302   9.235  0.2592  0.0911  0.0566
    1W        W61389   3.452  28.353   1.058  0.0547  0.0024 -0.1785
    1W        W61390   3.987  21.707   5.792  0.0508 -0.3050 -0.3102
    1W        W61391   8.647  22.149   0.688  0.1610  0.2540 -0.2194
    1W        W61392  25.913  23.767   8.455  0.1363  0.0478  0.2188
    1W        W61393  28.857  27.840   9.157  0.2229 -0.1030  0.0613
    1W        W61394  20.655  20.257   8.347 -0.3830 -0.3340  0.2007
    1W        W61395  21.111  27.324   0.657 -0.0576 -0.0609 -0.0440
    1W        W61396  16.842   0.623   0.985 -0.1487 -0.0297  0.3235
    1W        W61397  27.354  18.583   3.193  0.1702 -0.0017 -0.1087
    1W        W61398  25.068   8.756   1.431 -0.1729 -0.1752  0.0526
    1W        W61399  16.846  23.877   1.041 -0.1974  0.1370  0.0187
    1W        W61400  22.830   4.732   9.265 -0.2065 -0.0186  0.0919
    1W        W61401  17.671   2.313   0.224 -0.3021  0.2414 -0.1269
    1W        W61402   5.074   5.905   8.936 -0.1708  0.3954 -0.1230
    1W        W61403  22.495   2.775   4.085 -0.1458  0.1973 -0.0338
    1W        W61404   9.592   5.330   7.895  0.2051 -0.2777 -0.2173
    1W        W61405   0.053  26.661   6.772 -0.0841 -0.0968  0.0933
    1W        W61406   3.020  24.308   8.410  0.1495  0.3524  0.1834
    1W        W61407  14.539  16.587   9.207  0.1438  0.1603  0.1656
    1W        W61408  18.976  26.802   1.900  0.0411 -0.0767  0.2223
    1W        W61409  18.024  16.899   7.530  0.0251 -0.1465 -0.0452
    1W        W61410  25.900   1.932   0.976 -0.0476 -0.0648 -0.0101
    1W        W61411  10.920  16.723   1.732  0.1168 -0.0715  0.0459
    1W        W61412   4.860  24.022   0.015 -0.1515  0.1773  0.1032
    1W        W61413   0.761  17.612   0.377 -0.1559  0.0972  0.3233
    1W        W61414  28.693   9.397   2.213 -0.0884 -0.0586 -0.0118
    1W        W61415   3.136  19.127   0.026 -0.0873  0.1815 -0.0429
    1W        W61416   0.961   4.102   1.716 -0.4104 -0.2399 -0.1391
    1W        W61417   3.074   4.761   7.779 -0.0937  0.0368 -0.1571
    1W        W61418  22.999   4.169   7.152 -0.0769 -0.3543 -0.1052
    1W        W61419  12.056   0.538   1.620 -0.0420  0.1374 -0.5270
    1W        W61420   3.369  20.173   8.041 -0.4109 -0.0182 -0.0846
    1W        W61421   9.673  24.547   0.886  0.1260  0.0105 -0.1487
    1W        W61422  28.929  20.935   0.412  0.1749  0.3842  0.0067
    1W        W61423   7.276  25.250   0.824 -0.0272  0.0919 -0.2339
    1W        W61424  22.181  15.845   1.945 -0.1717  0.0878 -0.1141
    1W        W61425  12.837  23.267   8.282 -0.1832 -0.0040 -0.0078
    1W        W61426  29.189   3.197   0.643  0.2649  0.0133  0.2597
    1W        W61427  11.087   6.531   0.360 -0.0166 -0.0617  0.0860
    1W        W61428   3.486  23.702   7.867 -0.1892 -0.2423 -0.1018
    1W        W61429  23.557   1.165   2.675  0.2682  0.1687 -0.0028
    1W        W61430  13.554  21.484   0.378 -0.1100 -0.0211  0.2547
    1W        W61431   1.249  10.220   7.191 -0.0168 -0.1987  0.0011
    1W        W61432   2.077  13.831   8.379  0.0515  0.0560  0.1012
    1W        W61433  14.618  20.587   6.288 -0.0613 -0.3275  0.1996
    1W        W61434   5.008   3.536   0.862  0.0933  0.1509 -0.1421
    1W        W61435  13.337  10.478   7.314 -0.0114  0.2151 -0.3878
    1W        W61436  13.079  13.469   1.112 -0.0636 -0.1474 -0.3394
    1W        W61437  13.519  23.796   6.349  0.4174 -0.0137 -0.1253
    1W        W61438  28.321   5.491   0.592  0.2504 -0.0418 -0.2903
    1W        W61439  24.974   1.868   0.141  0.2442 -0.3446 -0.1359
    1W        W61440   1.905  12.291   2.074 -0.0999 -0.0832  0.1326
    1W        W61441   4.085   7.187   1.009 -0.1692 -0.1395  0.2354
    1W        W61442  20.904  26.913   7.857  0.1329  0.3311 -0.0791
    1W        W61443   8.509  13.028   2.922  0.1391 -0.4794 -0.0433
    1W        W61444  15.832  17.601   7.032  0.0362 -0.1801  0.0781
    1W        W61445  23.279  22.339   0.375  0.1998  0.3912  0.2408
    1W        W61446  21.981   8.898   1.338 -0.1165  0.2417 -0.4173
    1W        W61447   0.511  27.652   1.443 -0.2284  0.2040  0.1475
    1W        W61448  19.773   9.198   1.356  0.0914  0.1950 -0.0215
    1W        W61449  14.505   6.946   7.835 -0.1518  0.3154  0.0957
    1W        W61450  20.123  18.479   1.456  0.2241  0.1866  0.0703
    1W        W61451   6.109  27.747   1.712 -0.0409  0.0944  0.1792
    1W        W61452   1.526  21.748   9.513  0.2256 -0.1593 -0.0624
    1W        W61453   3.139  19.532   8.114  0.1151 -0.3257 -0.2494
    1W        W61454  19.737  18.729   1.122  0.0668  0.2394 -0.1914
    1W        W61455   4.652   1.044   8.900  0.0136  0.0328  0.1051
    1W        W61456  28.752   7.954   1.499  0.3347  0.1902  0.1263
    1W        W61457  22.484  12.268   9.150 -0.1883 -0.0663 -0.4082
    1W        W61458  26.048  18.308   6.649  0.0533  0.3073 -0.0043
    1W        W61459  21.044  11.235   0.292  0.0580 -0.0287  0.0713
    1W        W61460  16.184  27.367   2.263 -0.0095 -0.0590 -0.0221
    1W        W61461  29.105  26.275   0.654 -0.0592 -0.0756 -0.3934
    1W        W61462  14.400  13.991   8.281 -0.1533 -0.0376 -0.0440
    1W        W61463  29.084  18.610   7.284  0.1858 -0.3035  0.1362
    1W        W61464  25.424  12.185   1.977 -0.1179 -0.1090 -0.1381
    1W        W61465  24.884  21.731   9.064  0.1899 -0.0281  0.0203
    1W        W61466  16.762  23.426   8.044 -0.0071 -0.0033  0.0867
    1W        W61467  14.493  15.699   2.159 -0.2672  0.2399  0.0446
    1W        W61468   4.409  24.253   7.029 -0.0461  0.2158 -0.2059
    1W        W61469  16.997  11.156   0.334 -0.1362  0.0554 -0.1177
    1W        W61470   3.711  15.279   0.592  0.3784  0.1697 -0.2125
    1W        W61471  29.025  16.375   7.167  0.0079  0.1194  0.0687
    1W        W61472  25.281   5.047   0.860 -0.0687  0.1427 -0.0951
    1W        W61473  24.289  25.299   8.938 -0.1153  0.0349  0.4010
    1W        W61474  18.197   7.675   3.093 -0.1147  0.0185  0.2007
    1W        W61475  24.589   3.503   1.191 -0.0539  0.0769 -0.0469
    1W        W61476  26.943  26.072   1.851  0.1107  0.0252  0.1519
    1W        W61477  22.701  16.297   9.360  0.0162 -0.2779  0.0820
    1W        W61478  28.348  25.473   2.743 -0.3235  0.0713  0.3442
    1W        W61479  18.261  17.107   0.720  0.2997  0.1153 -0.1457
    1W        W61480   3.319  26.465   6.452 -0.1826 -0.0296  0.3071
    1W        W61481   0.790  17.623   7.810  0.0296 -0.0894 -0.2003
    1W        W61482  10.221  11.283   7.018  0.0787 -0.3643 -0.1318
    1W        W61483  22.115  29.583   1.295  0.1062 -0.1499 -0.1434
    1W        W61484  22.180   2.371   3.950 -0.2589  0.1982 -0.0756
    1W        W61485   0.903  20.757   0.997 -0.2378  0.4164 -0.1568
    1W        W61486  26.498   6.664   2.277  0.1778  0.0273  0.0433
    1W        W61487  29.755  21.761   1.010 -0.0912 -0.0605 -0.2109
    1W        W61488  22.137  20.838   0.400 -0.0786 -0.0086  0.1045
    1W        W61489  17.383   6.793   1.761  0.0677 -0.0082 -0.0400
    1W        W61490  24.690  25.051   9.032  0.1389  0.2295  0.0253
    1W        W61491  18.148  10.490   9.513 -0.0648 -0.2925  0.0668
    1W        W61492  18.722  12.292   7.726  0.2964  0.0074 -0.1275
    1W        W61493  23.765   0.804   7.316  0.0511  0.3470  0.3486
    1W        W61494   2.666  13.372   0.383  0.3369  0.2462 -0.2340
    1W        W61495   9.507  28.247   1.241  0.1147  0.0847  0.2675
    1W        W61496   2.704  21.742   7.861 -0.0185  0.2137 -0.0826
    1W        W61497  11.371  11.991   9.259  0.2501  0.1607  0.1942
    1W        W61498   7.849   1.590   1.791 -0.2270  0.0206  0.1724
    1W        W61499   1.698  20.161   7.626  0.1118  0.0414  0.2003
    1W        W61500   7.299  20.025   6.271 -0.1726 -0.2521 -0.2365
    1W        W61501   4.294   9.843   2.643 -0.4057  0.0043 -0.1375
    1W        W61502  13.344  25.253   8.430 -0.3451 -0.0682 -0.2531
    1W        W61503  26.921   7.301   9.198 -0.1001 -0.1126 -0.2286
    1W        W61504  21.045  13.073   0.546  0.1352  0.1620  0.1244
    1W        W61505   7.047   1.004   0.809  0.1431 -0.0140  0.1391
    1W        W61506  16.311  17.659   8.815 -0.1418 -0.2856  0.1091
    1W        W61507  24.398  25.371   7.750 -0.0617  0.0272 -0.2019
    1W        W61508  20.588  18.472   1.267  0.0287 -0.1079 -0.2436
    1W        W61509   6.061  18.276   9.362  0.1182 -0.1388  0.1016
    1W        W61510   0.704  27.207   6.466 -0.0098  0.0096  0.1497
    1W        W61511  19.732  17.589   9.141 -0.1338  0.0498 -0.1462
    1W        W61512  19.292  22.806   5.805 -0.1412  0.1485  0.0744
    1W        W61513   7.467  16.014   8.118 -0.0913  0.1873  0.0358
    1W        W61514  17.169  19.266   9.174 -0.2948 -0.0123 -0.0707
    1W        W61515  17.518  29.377   7.362  0.0553  0.2780 -0.2804
    1W        W61516   7.727  29.358   8.003 -0.0226 -0.2741 -0.2027
    1W        W61517  24.983   6.117   2.678  0.1599  0.0803 -0.0674
    1W        W61518   1.616  14.310   9.465 -0.1536 -0.2285 -0.4706
    1W        W61519   8.960  21.124   8.568 -0.1250  0.1062  0.2423
    1W        W61520   1.446  26.398   8.046 -0.0633  0.4086 -0.0644
    1W        W61521   5.753   4.581   1.590 -0.1221  0.1795 -0.2963
    1W        W61522   1.603  24.506   6.809 -0.1092 -0.0806 -0.0036
    1W        W61523  25.736   2.368   2.319 -0.1686  0.0620 -0.0732
    1W        W61524   0.330   6.320   6.861 -0.0342 -0.0707  0.0745
    1W        W61525  23.301  10.849   7.602  0.2064  0.0061  0.0634
    1W        W61526  13.837  28.829   0.395  0.0025  0.0795 -0.0894
    1W        W61527   6.547   1.691   1.514 -0.0913 -0.2522  0.3126
    1W        W61528  19.466  16.785   8.545 -0.3560 -0.0633  0.0845
    1W        W61529   6.198  17.180   7.025  0.1489  0.0493  0.4004
    1W        W61530  11.015  20.721   0.417 -0.0976  0.1161  0.0079
    1W        W61531  16.672   5.850   8.246  0.0157 -0.1657  0.1995
    1W        W61532  24.803  22.497   2.032 -0.2510 -0.0259 -0.0900
    1W        W61533  12.192  18.542   6.597 -0.1297 -0.1704 -0.1610
    1W        W61534  16.484  20.365   7.751 -0.1504  0.4718 -0.0917
    1W        W61535  13.966   3.600   7.478 -0.0375  0.1390  0.0849
    1W        W61536  27.910   3.114   0.219  0.0417 -0.0020  0.1620
    1W        W61537   8.397  20.661   9.325  0.0667 -0.1530  0.0329
    1W        W61538   3.921   7.176   0.434 -0.1665 -0.1038 -0.1621
    1W        W61539   0.672  13.068   7.163 -0.3848 -0.0910  0.2098
    1W        W61540   7.336  29.080   0.016  0.2091 -0.1862  0.2274
    1W        W61541  10.510  19.963   6.299 -0.0872 -0.0599 -0.2035
    1W        W61542  18.347   4.826   9.132 -0.1653  0.1095  0.0701
    1W        W61543   6.909  28.110   7.615  0.0124  0.1195 -0.2481
    1W        W61544   6.145  26.869   7.500  0.0357  0.1302  0.2511
    1W        W61545   4.690  29.853   0.507 -0.0156 -0.2805  0.1172
    1W        W61546  15.008  16.424   0.149 -0.0616 -0.0362 -0.0894
    1W        W61547  21.317  21.148   0.467  0.1155  0.0296  0.1082
    1W        W61548  29.145   9.218   8.276  0.1422 -0.0830  0.0271
    1W        W61549  22.550  24.032   2.463 -0.2166  0.1371 -0.1338
    1W        W61550   7.840  27.333   9.140  0.1147  0.1258  0.0288
    1W        W61551  19.170  16.876   8.959 -0.2627  0.0965  0.0301
    1W        W61552   4.958  23.627   0.812  0.3438  0.1993  0.4269
    1W        W61553   0.397   2.325   0.932 -0.4230 -0.2087  0.0334
    1W        W61554  20.897   9.994   8.937 -0.0006 -0.1064  0.0899
    1W        W61555  10.779  13.417   6.349  0.0783 -0.1675 -0.1615
    1W        W61556   7.316  15.615   1.853 -0.3926 -0.0736  0.1744
    1W        W61557   6.282   3.342   2.718 -0.1239 -0.2771 -0.0721
    1W        W61558   6.812   9.296   1.005 -0.1245 -0.1510  0.0184
    1W        W61559  10.754  17.267   9.442 -0.2888  0.2471  0.0037
    1W        W61560  26.300  15.942   2.453  0.0341  0.1605 -0.0290
    1W        W61561  28.753   5.454   2.462 -0.2593 -0.0170 -0.0986
    1W        W61562   6.298  15.155   6.482 -0.0848 -0.3494 -0.3505
    1W        W61563  24.110  14.656   6.843  0.1664 -0.0421 -0.0971
    1W        W61564   1.764  19.275   1.131  0.3035  0.0266  0.1828
    1W        W61565   0.186  11.904   9.069 -0.0317  0.1651  0.0267
    1W        W61566  13.817  15.891   8.170 -0.1618 -0.1353  0.0177
    1W        W61567   8.709   2.709   6.317  0.1499  0.1434  0.1372
    1W        W61568   3.011  23.408   0.737  0.1171 -0.3886 -0.0589
    1W        W61569  26.580   1.702   2.167  0.1137  0.0062  0.4928
    1W        W61570  20.672  13.830   7.620  0.0546 -0.1023 -0.1937
    1W        W61571   6.377   7.519   8.164 -0.1699  0.1331  0.2084
    1W        W61572   5.639   6.938   2.132  0.0410 -0.1044 -0.3806
    1W        W61573  28.750  26.109   0.999  0.0873 -0.0969  0.0198
    1W        W61574  16.206  10.531   9.041 -0.1333  0.0134  0.1646
    1W        W61575  21.266  21.785   1.842 -0.1903  0.0082 -0.0148
    1W        W61576  21.063   3.658   9.106 -0.0415  0.3282 -0.1652
    1W        W61577  25.920  16.285   2.162 -0.0471 -0.1009  0.0975
    1W        W61578  27.909   3.234   1.098  0.3710  0.1089  0.1573
    1W        W61579  16.997   0.937   1.434  0.4447 -0.1414  0.3006
    1W        W61580  19.182  29.686   1.760  0.2397  0.0590 -0.0331
    1W        W61581  14.515   9.515   1.400 -0.0325  0.0246 -0.1728
    1W        W61582   4.707  16.385   7.612 -0.1078 -0.2984 -0.0678
    1W        W61583  13.376  15.840   7.808  0.0605  0.0060  0.1421
    1W        W61584   5.566  25.160   0.116  0.3159 -0.0945 -0.1765
    1W        W61585  26.950   3.348   3.300  0.0086  0.1042  0.1484
    1W        W61586  28.304   5.111   1.803 -0.2608 -0.2005  0.2186
    1W        W61587  19.737  13.911   9.328  0.1862 -0.1351 -0.0667
    1W        W61588  24.071   3.704   8.314  0.1086  0.2042  0.1022
    1W        W61589  18.128  26.693   9.262 -0.2441  0.0394  0.1377
    1W        W61590  12.739  13.998   1.828  0.0695  0.0901  0.1978
    1W        W61591  26.956   0.094   1.823 -0.0307  0.0538  0.2750
    1W        W61592  26.942  17.485   0.485 -0.0351 -0.0184 -0.5487
    1W        W61593  23.885  26.181   8.024  0.0642  0.4202  0.0368
    1W        W61594  27.357   5.326   7.298 -0.4072 -0.4268  0.1063
    1W        W61595  19.876  27.080   8.660  0.2565 -0.1186  0.0735
    1W        W61596   0.583   3.790   1.037  0.0392 -0.0616  0.2807
    1W        W61597  22.229  26.397   2.129  0.0163  0.1091 -0.3062
    1W        W61598  28.223   5.707   1.004 -0.0546 -0.0861  0.0481
    1W        W61599  10.566   8.881   0.821  0.0400  0.3144 -0.3015
    1W        W61600   7.900   7.473   8.101 -0.0623 -0.3014 -0.3299
    1W        W61601  28.987  29.348   0.214 -0.0505  0.0747 -0.0424
    1W        W61602   9.809  15.587   0.320 -0.0918  0.0930  0.0393
    1W        W61603   6.177   4.029   8.678  0.0699  0.1986  0.2940
    1W        W61604   1.965  14.940   1.594  0.0915 -0.1834  0.0022
    1W        W61605   2.332  19.336   0.837  0.1703  0.1371  0.0811
    1W        W61606  25.529  11.156   1.842  0.0211 -0.1700 -0.0210
    1W        W61607  21.853  28.227   6.261  0.1171 -0.0153 -0.2612
    1W        W61608  19.358  11.050   1.768  0.0230 -0.0516  0.0295
    1W        W61609   4.311  14.399   1.892  0.1390  0.1807  0.2579
    1W        W61610  23.098  18.144   1.545  0.0885  0.0347  0.0647
    1W        W61611  29.013  24.857   1.250  0.0143 -0.0550  0.1067
    1W        W61612  18.226  11.498   1.141  0.0845  0.1507  0.1180
    1W        W61613  27.044   3.092   1.446  0.0803 -0.2221 -0.3067
    1W        W61614   9.689  14.622   2.563 -0.1467  0.0694 -0.0606
    1W        W61615   6.964  23.540   1.459 -0.3611  0.2133  0.0857
    1W        W61616   2.278  21.818   2.114 -0.0041  0.3515 -0.1132
    1W        W61617   0.456  13.559   7.229  0.1025  0.4645  0.1893
    1W        W61618   0.844  22.160   8.105 -0.1649  0.1851 -0.1439
    1W        W61619  14.111  23.174   0.540  0.0453 -0.0090  0.0504
    1W        W61620   8.009  18.366   6.774 -0.0663  0.0073  0.2452
    1W        W61621  24.800  23.904   9.098  0.1383 -0.1834  0.0732
    1W        W61622   4.259  19.151   0.473  0.1532  0.2375 -0.0517
    1W        W61623  25.553  26.295   0.993  0.1092 -0.1443  0.1077
    1W        W61624  13.947  25.356   7.119 -0.4117 -0.1711 -0.0343
    1W        W61625   5.349  11.007   9.270 -0.0664 -0.3567 -0.1731
    1W        W61626  28.089   3.660   3.102 -0.5039 -0.3988  0.2094
    1W        W61627   8.828  21.215   0.918  0.0381  0.3590 -0.1286
    1W        W61628  10.389  11.338   0.021  0.1818 -0.2087 -0.1976
    1W        W61629  11.065   5.472   0.406 -0.0076  0.2924  0.2828
    1W        W61630  19.552   6.988   0.509 -0.2719 -0.2273  0.2354
    1W        W61631  17.863   1.332   7.548  0.2297  0.2189 -0.2612
    1W        W61632   0.077  25.835   2.535  0.3828 -0.0120 -0.1426
    1W        W61633  22.613  11.448   1.031  0.1315 -0.0341  0.0007
    1W        W61634  17.355  11.579   1.866 -0.0950 -0.0727 -0.0305
    1W        W61635  15.889  25.724   9.135  0.2385  0.3087  0.1431
    1W        W61636  27.202  15.887   0.671 -0.0118  0.2196 -0.1899
    1W        W61637  10.601  22.737   0.194  0.2048 -0.2460 -0.1395
    1W        W61638  14.090  29.747   7.319  0.3066 -0.0704 -0.1311
    1W        W61639  28.166  22.124   0.390  0.1352  0.0866 -0.0299
    1W        W61640  15.238  23.131   6.739  0.1489 -0.1361 -0.1986
    1W        W61641  15.734  17.024   1.092 -0.2236 -0.0936  0.3301
    1W        W61642  13.938  11.589   1.509 -0.0715  0.0973  0.0538
    1W        W61643  27.899   7.765   0.792 -0.0667 -0.0097 -0.3372
    1W        W61644   7.141   5.375   1.800  0.0047 -0.2109  0.2551
    1W        W61645  22.788  25.224   2.092 -0.0726 -0.0823 -0.0490
    1W        W61646  14.706  28.684   8.381  0.0179 -0.0345 -0.1798
    1W        W61647  27.300  10.787   6.787  0.4251 -0.0921  0.2949
    1W        W61648  20.262  12.334   1.767  0.0576  0.2237 -0.0979
    1W        W61649  29.349  22.724   6.846 -0.0468  0.2192 -0.1280
    1W        W61650  22.568   8.173   3.482  0.3826 -0.2497 -0.3367
    1W        W61651   9.289  18.618   6.895 -0.0979 -0.3306 -0.2750
    1W        W61652  25.441  13.966   0.435  0.0456  0.2313 -0.0609
    1W        W61653  19.881   3.924   1.725 -0.0874 -0.2785 -0.0932
    1W        W61654   1.966  17.313   0.079  0.2242 -0.3288  0.1140
    1W        W61655  14.968   1.065   8.277 -0.3729 -0.4802  0.1775
    1W        W61656   4.514  23.851   6.307  0.2125  0.2499 -0.1507
    1W        W61657  27.685  25.322   9.047 -0.0082  0.0128 -0.1932
    1W        W61658   5.297  27.854   0.872  0.1495 -0.1640  0.0329
    1W        W61659   0.620   1.222   0.651 -0.2867 -0.2393  0.2350
    1W        W61660  19.765   0.227   8.716  0.2593  0.0914  0.0806
    1W        W61661   9.835   8.238   7.813 -0.0691  0.4736 -0.1659
    1W        W61662  16.046   0.873   1.530  0.1691  0.3390  0.2715
    1W        W61663   3.039  28.152   6.805  0.2977  0.0645 -0.1457
    1W        W61664   7.232  26.676   9.333  0.1882 -0.1757  0.1004
    1W        W61665  15.171  11.194   1.397  0.2219 -0.0986 -0.1173
    1W        W61666  15.228  13.712   7.165  0.1678  0.2606  0.1069
    1W        W61667  21.087  13.119   8.236 -0.2099 -0.1053 -0.0117
    1W        W61668  14.459  21.390   0.124 -0.2180  0.1367 -0.3228
    1W        W61669  23.689   9.434   8.854  0.3534  0.1294 -0.4125
    1W        W61670  26.624   8.006   0.687 -0.0417 -0.1021 -0.0526
    1W        W61671  23.522   8.822   0.818  0.0281  0.0610 -0.1250
    1W        W61672  24.745  24.864   1.450 -0.3520  0.1914  0.0911
    1W        W61673  27.118  10.531   7.619  0.2699 -0.2837  0.1228
    1W        W61674   7.341  15.657   7.743  0.0980  0.1943 -0.2494
    1W        W61675   2.374  11.099   9.474 -0.2860  0.1085 -0.0572
    1W        W61676   8.397  25.330   5.795  0.2550 -0.0363  0.0635
    1W        W61677   5.635   8.596   7.277  0.0007 -0.3249  0.3839
    1W        W61678  14.293   4.487   0.572  0.4246 -0.1181  0.3837
    1W        W61679   1.252  22.465   7.812 -0.1520 -0.1295 -0.0567
    1W        W61680   9.536  27.042   1.757  0.2214 -0.1789 -0.0329
    1W        W61681   5.844  12.689   6.202  0.0227 -0.1238 -0.1313
    1W        W61682  17.696  11.891   8.659 -0.1718  0.0769 -0.0729
    1W        W61683  29.802  14.673   1.405 -0.2559  0.4344  0.2913
    1W        W61684   1.036  25.419   0.120  0.0319  0.0127 -0.0221
    1W        W61685  28.317  13.509   6.863  0.1993 -0.0255 -0.1781
    1W        W61686   7.963   5.540   0.043  0.0351 -0.3144 -0.1630
    1W        W61687   4.073  10.084   8.373  0.0312 -0.0853 -0.1643
    1W        W61688  22.805   1.430   2.399 -0.1641  0.1032 -0.0353
    1W        W61689  24.936   0.545   1.047 -0.2360  0.0889 -0.2253
    1W        W61690  20.132  28.364   7.602 -0.1997 -0.1700  0.2661
    1W        W61691  23.276   8.328   9.146 -0.0217  0.1382  0.1082
    1W        W61692  23.001   0.546   2.276  0.2210 -0.2570 -0.0446
    1W        W61693  26.988  11.359   9.399  0.0114  0.0146 -0.0741
    1W        W61694   5.211  19.296   6.744  0.0359 -0.1304 -0.1182
    1W        W61695  20.786  22.548   8.457 -0.1000 -0.2757  0.1299
    1W        W61696  21.334   2.081   7.773  0.2279  0.1921  0.0082
    1W        W61697   7.093  29.305   1.860 -0.1978  0.0769 -0.0745
    1W        W61698   6.490  18.451   9.203 -0.2321  0.4608 -0.4162
    1W        W61699   7.064  13.478   9.095  0.0376 -0.0450  0.1086
    1W        W61700  13.173   5.504   9.262  0.0298  0.1135  0.1614
    1W        W61701   6.827   0.477   7.474 -0.1719 -0.0079  0.1015
    1W        W61702   4.706  15.973   1.399 -0.0032 -0.2315  0.0501
    1W        W61703  26.323  12.473   8.573  0.1490  0.1155  0.0823
    1W        W61704  13.674  19.098   0.308 -0.2480 -0.2372  0.4081
    1W        W61705   0.830  11.796   0.497 -0.1882 -0.0433  0.0642
    1W        W61706  24.813  26.318   0.424 -0.0199  0.1411 -0.0054
    1W        W61707   5.406  24.983   6.645 -0.2617 -0.3755 -0.3361
    1W        W61708  18.892  27.133   0.148 -0.2534 -0.2299 -0.1560
    1W        W61709  19.500  26.896   9.187 -0.0939  0.0848 -0.0514
    1W        W61710  10.102  24.524   6.609 -0.1042 -0.0007 -0.3074
    1W        W61711  22.250  22.982   6.087  0.1844 -0.0612  0.3269
    1W        W61712   7.944   3.604   9.481 -0.1315  0.2242 -0.2037
    1W        W61713  18.221  26.604   7.859  0.1742  0.0846  0.0015
    1W        W61714   4.270  29.629   2.253  0.3262  0.1948  0.1875
    1W        W61715  22.902  18.566   1.322  0.1271 -0.0562 -0.0897
    1W        W61716   2.206  29.813   0.713  0.0549 -0.0380  0.1345
    1W        W61717  22.569   5.290   9.022 -0.0574 -0.2628 -0.1049
    1W        W61718  17.628  24.054   9.085  0.0381 -0.1053  0.0208
    1W        W61719  25.519  15.418   7.432 -0.0472 -0.0083  0.0761
    1W        W61720  24.675  28.860   7.582  0.1502  0.0417 -0.0537
    1W        W61721   3.127   5.618   9.180  0.0981  0.1831  0.0323
    1W        W61722   0.122   1.010   7.726 -0.0166  0.1159 -0.2925
    1W        W61723   9.503  17.568   6.787  0.0230 -0.0991 -0.1181
    1W        W61724  17.534  12.250   2.057 -0.2268 -0.1628  0.0088
    1W        W61725  16.548  23.794   7.324 -0.0367 -0.2961 -0.1834
    1W        W61726  16.435   3.084   1.993 -0.1370  0.2825 -0.1545
    1W        W61727  14.172  14.638   2.818  0.2169 -0.1583  0.1145
    1W        W61728   7.291  21.442   8.675  0.0845  0.0050  0.2373
    1W        W61729  25.473   1.131   0.739 -0.0693  0.1300  0.0474
    1W        W61730  28.845   9.114   0.688 -0.0594  0.3418 -0.0380
    1W        W61731   1.589  12.385   2.431  0.3878 -0.1292 -0.1546
    1W        W61732  16.438  21.263   5.331  0.1622  0.0297 -0.3799
    1W        W61733  20.668  20.759   8.195 -0.0668 -0.0890 -0.0206
    1W        W61734  15.280  25.957   7.166 -0.0158  0.3176  0.0484
    1W        W61735  21.129  27.168   7.439 -0.2091 -0.1030  0.0321
    1W        W61736   7.642   6.704   0.162  0.0325  0.1094 -0.1862
    1W        W61737  14.411  21.524   6.373 -0.1494 -0.0690  0.0353
    1W        W61738  18.874  17.849   6.406  0.2232 -0.0880  0.1975
    1W        W61739  18.139  12.193   8.846  0.0216  0.2921  0.1887
    1W        W61740   8.928   7.561   6.430  0.3514  0.0095  0.1197
    1W        W61741  15.691  16.815   1.569  0.0673  0.3449 -0.0070
    1W        W61742  23.658   0.648   0.513 -0.0634 -0.0741  0.2527
    1W        W61743  23.382  20.652   6.235 -0.1440 -0.0539  0.1851
    1W        W61744  16.140   5.834   0.979 -0.1403  0.0642 -0.0601
    1W        W61745  11.942  11.995   1.683  0.0365 -0.0751 -0.0964
    1W        W61746   4.686  20.424   0.789 -0.1707 -0.2043 -0.0831
    1W        W61747  10.115   5.879   8.609 -0.2484  0.1987  0.0218
    1W        W61748   9.595  13.763   6.754  0.3779  0.0027 -0.1630
    1W        W61749   3.909  18.266   0.905  0.0315 -0.4258 -0.0742
    1W        W61750  11.032  14.378   1.520  0.1809  0.1363 -0.0297
    1W        W61751   1.646  24.732   9.156  0.0277 -0.1359  0.3603
    1W        W61752   1.751  19.424   2.111 -0.2396 -0.0537  0.1168
    1W        W61753  27.734  18.249   8.901  0.2434  0.0914  0.1105
    1W        W61754  13.788  19.464   1.678 -0.0811 -0.0956  0.0725
    1W        W61755  29.706   7.826   6.173  0.1654 -0.2004  0.4514
    1W        W61756   1.014   0.413   2.317 -0.3570  0.0341 -0.5064
    1W        W61757  20.533  24.272   6.078  0.0182 -0.1563  0.0890
    1W        W61758   0.984  13.604   2.405  0.1901  0.1095 -0.1576
    1W        W61759  24.679   6.592   7.819  0.1143  0.1675 -0.1325
    1W        W61760  15.217   0.148   7.948 -0.0822  0.1769  0.2502
    1W        W61761  15.394  17.108   6.818  0.0734  0.2013 -0.2762
    1W        W61762   8.018  22.454   9.148  0.3863  0.2448  0.1401
    1W        W61763  15.461  20.620   0.140  0.2926 -0.1916  0.1219
    1W        W61764   6.361   2.670   1.248  0.1571 -0.0350  0.1671
    1W        W61765  17.796  10.402   1.967  0.2618 -0.1760 -0.0638
    1W        W61766  12.205   7.644   9.392  0.0115 -0.1892  0.1283
    1W        W61767  24.390   8.545   2.883 -0.0069 -0.4312  0.1951
    1W        W61768  12.237   7.283   0.777 -0.2694 -0.1339 -0.0822
    1W        W61769  27.591   5.079   7.834 -0.0415 -0.4886  0.0268
    1W        W61770  19.320  21.369   0.592  0.3034 -0.0259 -0.4276
    1W        W61771  25.501  12.533   1.580 -0.1898 -0.2588  0.0735
    1W        W61772  24.278   7.585   1.704  0.2786  0.0238  0.0522
    1W        W61773  11.068  17.193   9.037  0.0434 -0.1144  0.3915
    1W        W61774   5.963   5.697   1.924 -0.2894  0.1673  0.1663
    1W        W61775  10.502   8.063   2.217  0.0951  0.2439 -0.0685
    1W        W61776   2.297   1.818   8.783 -0.3566  0.3020  0.0475
    1W        W61777  22.138  23.102   8.652  0.1252 -0.1387 -0.1910
    1W        W61778  18.843   8.346   0.156 -0.1557 -0.0835 -0.1372
    1W        W61779   3.099   7.395   1.363  0.1638 -0.1734  0.0427
    1W        W61780   8.193   1.244   0.323 -0.0796  0.3497 -0.3094
    1W        W61781  24.032  15.813   2.563  0.2519  0.0951 -0.1094
    1W        W61782   7.484  20.089   6.829 -0.2514  0.0875 -0.0821
    1W        W61783   3.519   6.094   9.008 -0.0041  0.1084  0.1271
    1W        W61784  28.645   3.525   0.222  0.0281  0.1853 -0.1357
    1W        W61785   8.255  11.170   3.182  0.2131 -0.0211 -0.0621
    1W        W61786  14.728  23.750   5.399  0.2437  0.0761 -0.1670
    1W        W61787   9.700   3.519   2.000  0.2902  0.1004 -0.0304
    1W        W61788   4.886  25.758   1.055  0.3485  0.1155 -0.2225
    1W        W61789   9.154  21.025   2.029  0.0623 -0.0346 -0.0140
    1W        W61790  22.857  22.731   8.146 -0.0281 -0.2933 -0.1322
    1W        W61791  24.979  24.588   2.135 -0.0243 -0.0787  0.0597
    1W        W61792  10.970   3.780   2.518  0.2850  0.0326 -0.2651
    1W        W61793  15.494   3.061   0.798 -0.1668  0.1170 -0.0253
    1W        W61794   2.675  26.999   0.898 -0.0819 -0.3088 -0.3213
    1W        W61795  11.959   6.122   8.098  0.3267  0.2528  0.0744
    1W        W61796   7.360  28.308   7.520  0.1349  0.0739 -0.0925
    1W        W61797  12.059  25.683   1.473 -0.1529  0.4326 -0.0426
    1W        W61798  13.497   0.271   1.046  0.0289 -0.1067 -0.0273
    1W        W61799  11.337  12.627   2.055 -0.1370 -0.0462  0.1244
    1W        W61800  11.341  23.658   6.559  0.2459  0.0314  0.1415
    1W        W61801  29.683   8.461   6.714  0.0521  0.0011  0.0483
    1W        W61802  16.435  20.686   1.529  0.2929  0.1249 -0.0344
    1W        W61803  17.969  19.879   1.782 -0.0556  0.0476  0.0942
    1W        W61804   6.804   0.911   1.959 -0.1829  0.3386  0.0665
    1W        W61805  19.605  17.109   8.882 -0.0149  0.0031  0.3258
    1W        W61806  16.268  25.790   6.740 -0.1609 -0.2849 -0.0734
    1W        W61807   6.574  21.696   6.218  0.0905 -0.1371 -0.1029
    1W        W61808   2.454  18.237   2.447  0.1979  0.1643 -0.0879
    1W        W61809   1.557  20.956   6.997  0.1745 -0.1259  0.1065
    1W        W61810   4.635  14.001   9.324  0.0060 -0.2190 -0.1521
    1W        W61811  17.334  18.013   9.107 -0.2589 -0.2039  0.0296
    1W        W61812  17.092  11.393   1.390  0.0883 -0.0862  0.1140
    1W        W61813  19.646   3.299   0.530 -0.0516 -0.1307 -0.2310
    1W        W61814  17.075  13.931   0.194 -0.0311  0.0213  0.2745
    1W        W61815   3.685  26.252   6.191 -0.3073  0.1426 -0.0015
    1W        W61816  10.374  21.106   1.211  0.1479  0.3252 -0.2986
    1W        W61817  11.817   0.412   2.038  0.2370 -0.0903 -0.0834
    1W        W61818  18.688  16.525   0.542 -0.0900  0.2124  0.5355
    1W        W61819  29.745  17.385   0.817  0.3772 -0.0053  0.0939
    1W        W61820  26.788  12.509   8.328  0.0225  0.1299  0.0967
    1W        W61821   4.524  25.501   5.914  0.0629  0.3429  0.5395
    1W        W61822  19.134  25.670   9.339 -0.0834  0.1955  0.0599
    1W        W61823  22.268  29.454   1.980  0.0995 -0.1323 -0.0492
    1W        W61824  17.740   9.688   1.693 -0.0570  0.4523 -0.1861
    1W        W61825  19.111  15.489   7.147 -0.0925 -0.2561 -0.2508
    1W        W61826   2.543   9.615   6.982 -0.0301  0.0385 -0.1376
    1W        W61827  18.950  15.680   6.634 -0.0757  0.0362 -0.2369
    1W        W61828  26.100   8.875   0.643  0.0345  0.1713  0.1014
    1W        W61829   5.986  27.579   6.627  0.2383  0.3582 -0.1117
    1W        W61830   4.705  13.343   7.268  0.0605  0.1642 -0.2132
    1W        W61831   0.093  16.280   3.091  0.0100 -0.1190 -0.0584
    1W        W61832  14.540   4.476   2.102  0.0202 -0.2097  0.1382
    1W        W61833  23.199   9.411   0.350 -0.2311  0.1523  0.0925
    1W        W61834  25.120  24.135   7.255  0.1317 -0.0637 -0.0697
    1W        W61835  10.153  15.414   0.609  0.3929  0.2742 -0.1856
    1W        W61836  10.355   0.991   0.460  0.2838 -0.2412  0.0165
    1W        W61837  23.359  23.368   2.977  0.0048  0.1505  0.1418
    1W        W61838  23.365  20.136   0.395  0.4222  0.3278 -0.0723
    1W        W61839  22.725  21.103   8.702  0.0307 -0.1913  0.1735
    1W        W61840  12.186   4.681   7.840  0.0981 -0.1031  0.2489
    1W        W61841   2.339   5.733   8.119 -0.0770 -0.0410 -0.1941
    1W        W61842  14.787  27.212   1.382  0.0054  0.3796 -0.0398
    1W        W61843   6.718  27.422   9.424 -0.1188  0.0325  0.0091
    1W        W61844  25.005  28.335   2.429  0.1642 -0.1693  0.2150
    1W        W61845  24.588   9.454   7.838  0.1440 -0.3734  0.0411
    1W        W61846  12.887  24.229   1.417  0.0884 -0.0012  0.3210
    1W        W61847  11.218   8.161   7.836  0.0196 -0.2366 -0.1059
    1W        W61848   3.584  20.269   1.863 -0.1110  0.1858 -0.0185
    1W        W61849  25.769  17.923   8.434 -0.1045  0.3202 -0.1113
    1W        W61850   4.883  15.375   1.111  0.0283  0.0689 -0.0697
    1W        W61851  11.030   8.406   0.808 -0.0277 -0.1464 -0.0965
    1W        W61852  13.684  24.426   8.640  0.1737  0.2094  0.0249
    1W        W61853   4.594  15.443   7.794 -0.1098  0.2692 -0.3012
    1W        W61854  23.887  13.137   0.798 -0.0041  0.1363  0.2991
    1W        W61855  12.287  28.543   0.963 -0.0413 -0.0745  0.1310
    1W        W61856  19.284  12.785   8.128  0.1069 -0.1506  0.2356
    1W        W61857   5.033  12.394   1.800 -0.0599 -0.1728 -0.1731
    1W        W61858   2.177   2.219   6.797 -0.3012 -0.1260 -0.1539
    1W        W61859  15.602  16.430   6.415  0.3308 -0.2629  0.1609
    1W        W61860   3.686  18.333   6.249 -0.0529 -0.2451  0.0389
    1W        W61861  22.428  17.435   6.958  0.2528 -0.0760 -0.0721
    1W        W61862   6.960  25.919   1.034  0.2361 -0.4474 -0.0008
    1W        W61863  15.432   8.494   2.790 -0.2622  0.0643  0.0334
    1W        W61864  11.664   9.582   0.650 -0.0567  0.1183 -0.2883
    1W        W61865  17.117  23.816   6.278 -0.0701 -0.3160 -0.0446
    1W        W61866  22.184  12.648   8.971  0.0180 -0.0428  0.2748
    1W        W61867  11.195  19.828   2.630 -0.2165 -0.2516  0.1684
    1W        W61868  13.460  16.965   8.254  0.1478  0.0414  0.0582
    1W        W61869   6.956  21.812   9.017 -0.0402 -0.0548 -0.1169
    1W        W61870  22.038  23.150   6.562 -0.2188  0.0835 -0.3049
    1W        W61871  12.016  15.436   7.659  0.0821 -0.1104 -0.1104
    1W        W61872  27.437   5.040   6.399 -0.0258  0.0589  0.1216
    1W        W61873  22.511   2.897   8.650 -0.1121  0.0441  0.2360
    1W        W61874  22.294   0.519   9.473  0.2336 -0.1550 -0.4402
    1W        W61875  15.780  25.341   5.751  0.1367  0.4189 -0.0897
    1W        W61876  11.837  27.364   2.371  0.2015  0.1460  0.1497
    1W        W61877  21.257   7.024   1.811 -0.2940 -0.1590 -0.0601
    1W        W61878  28.320  10.272   1.055 -0.0470  0.2160 -0.0129
    1W        W61879   3.280   8.534   3.100 -0.1040 -0.0063 -0.0735
    1W        W61880   0.904   8.083   7.588 -0.4319  0.0272  0.2187
    1W        W61881   6.689   8.464   7.770 -0.0149  0.1588  0.2382
    1W        W61882  28.112   6.134   9.099  0.2980 -0.3061 -0.1154
    1W        W61883   4.580  14.989   6.206  0.2330  0.0495  0.4357
    1W        W61884   6.135  18.451   6.216  0.0972 -0.0359  0.1434
    1W        W61885  24.197  21.126   1.257  0.2801  0.0345  0.1214
    1W        W61886  21.710   4.886   3.431 -0.1545  0.0401 -0.0131
    1W        W61887  24.743  29.604   0.211  0.2597  0.0574  0.0799
    1W        W61888  29.719  25.464   2.737 -0.2266 -0.2956 -0.0592
    1W        W61889  26.731   7.730   7.466 -0.0719 -0.0503 -0.0706
    1W        W61890  20.420  27.423   1.096 -0.0678 -0.0625 -0.1040
    1W        W61891   0.995   3.574   7.624  0.2243 -0.0346 -0.0311
    1W        W61892   3.967   6.641   1.351 -0.3844  0.0175  0.3988
    1W        W61893  16.662   8.692   2.010 -0.2781 -0.2355  0.0873
    1W        W61894   0.345  13.234   7.632  0.2444 -0.2295  0.1072
    1W        W61895   6.061   2.992   8.385  0.0769  0.0941 -0.1064
    1W        W61896  19.891  20.677   7.462 -0.0590 -0.0286  0.2461
    1W        W61897  11.033  16.624   8.825  0.1876 -0.2501  0.0302
    1W        W61898   8.590  28.978   1.994  0.0693  0.0552 -0.2683
    1W        W61899   4.677   2.040   1.240 -0.1049  0.1986 -0.0802
    1W        W61900   4.768  22.749   9.435  0.1092  0.3026 -0.1402
    1W        W61901   1.579  20.707   7.749  0.0873  0.1274  0.1871
    1W        W61902   5.634  12.201   9.479  0.1707  0.1973  0.1498
    1W        W61903   4.186  16.136   8.527 -0.1198  0.2524 -0.0528
    1W        W61904  18.662  18.966   0.228 -0.1511  0.0809  0.1004
    1W        W61905  10.330  26.805   7.398 -0.1417 -0.2910 -0.1101
    1W        W61906  13.042  13.890   7.192  0.0126 -0.0008 -0.0538
    1W        W61907  27.713  24.819   6.993  0.3410  0.1805  0.0586
    1W        W61908  11.804   1.138   0.936  0.0443  0.1020 -0.2088
    1W        W61909   8.860  17.785   8.975  0.3054 -0.2001  0.2576
    1W        W61910  13.091  23.268   6.676 -0.3614  0.0184  0.1155
    1W        W61911   8.234  13.316   9.006 -0.2934 -0.0413 -0.1313
    1W        W61912  18.313   3.350   2.551 -0.0918 -0.0015 -0.2245
    1W        W61913  27.478  16.941   6.417  0.2629 -0.0758  0.0319
    1W        W61914  22.249  11.781   7.304  0.1597 -0.2762 -0.2430
    1W        W61915  11.689  19.211   1.559 -0.1249  0.1125 -0.2149
    1W        W61916  23.514  24.576   2.281 -0.4659 -0.2949 -0.1330
    1W        W61917   2.099  25.558   1.148 -0.0264  0.2467  0.2405
    1W        W61918   7.752  26.520   5.859 -0.0634 -0.0027  0.3009
    1W        W61919  24.399  18.458   7.562 -0.0717  0.0236 -0.0423
    1W        W61920  20.916  15.121   2.112  0.1796 -0.0731 -0.4269
    1W        W61921  15.074   5.789   8.104 -0.3714 -0.3549 -0.2801
    1W        W61922  27.892  20.398   2.135  0.0251 -0.0542 -0.2770
    1W        W61923  27.471  24.453   9.466 -0.0243 -0.1786  0.2094
    1W        W61924  16.489   4.547   8.926 -0.3434  0.4531  0.1193
    1W        W61925  13.585   4.936   9.168  0.1280 -0.0929  0.0922
    1W        W61926  21.960  14.223   6.729 -0.4036 -0.0258  0.2384
    1W        W61927  11.163   4.612   0.874  0.0399  0.4403 -0.1112
    1W        W61928  24.438  25.810   0.797  0.4690  0.0472 -0.1171
    1W        W61929  27.428   6.663   7.773  0.0663 -0.2903 -0.0473
    1W        W61930  28.804   2.729   6.730 -0.0117 -0.0102 -0.1894
    1W        W61931  25.397  12.082   8.812  0.0610 -0.1873  0.0752
    1W        W61932  14.891  25.219   6.294  0.0049  0.1720  0.1646
    1W        W61933   0.265   7.262   9.129 -0.2185  0.2538  0.0857
    1W        W61934  25.402   7.055   7.170 -0.0275 -0.1074 -0.0309
    1W        W61935   3.762  24.959   6.183 -0.1075  0.3672 -0.0498
    1W        W61936  13.340  26.874   0.583  0.0197  0.0343  0.1481
    1W        W61937  20.998   8.284   9.521  0.2466  0.3445  0.0792
    1W        W61938  29.445  13.416   6.451 -0.2783  0.1153  0.1899
    1W        W61939   7.588   8.155   2.889  0.2654 -0.2680  0.1931
    1W        W61940  16.694  14.429   0.055 -0.0738 -0.1908 -0.1232
    1W        W61941  16.761  15.317   0.955  0.2226 -0.3253  0.3054
    1W        W61942  22.664   3.957   0.244 -0.1624  0.3590  0.0731
    1W        W61943  20.692  23.723   0.805 -0.0176  0.2909  0.0712
    1W        W61944  10.238   5.491   2.103  0.0467 -0.0681  0.0153
    1W        W61945   9.310   1.751   1.982  0.4006  0.0014 -0.0126
    1W        W61946   7.642  14.250   8.863  0.1200  0.4289  0.1372
    1W        W61947   9.098  15.925   2.359  0.1563 -0.0535  0.0343
    1W        W61948  14.880  29.482   2.803  0.2102  0.1528  0.1370
    1W        W61949   7.649   9.330   0.470 -0.0630  0.2423 -0.0536
    1W        W61950  29.807  13.494   8.976 -0.0126  0.2818 -0.2210
    1W        W61951  11.961  22.971   9.098  0.3699 -0.1621 -0.0138
    1W        W61952  13.807  18.253   0.479 -0.2508  0.1367  0.0901
    1W        W61953  13.404   1.149   8.579 -0.0853 -0.1810  0.1264
    1W        W61954   2.854   8.116   9.320 -0.0790 -0.0382 -0.2713
    1W        W61955   4.544  19.256   6.713 -0.0302 -0.0794 -0.0420
    1W        W61956  21.672   2.333   1.074 -0.0184 -0.1092  0.2785
    1W        W61957   4.067   5.556   1.324  0.0543 -0.3081  0.0894
    1W        W61958   5.380  24.633   0.880 -0.3255 -0.1210 -0.1235
    1W        W61959  20.321  25.789   9.189 -0.2049  0.1096  0.0342
    1W        W61960  11.153  18.220   1.444  0.2876  0.4039 -0.1224
    1W        W61961  23.028  14.153   8.851  0.0033 -0.1135 -0.1217
    1W        W61962  11.302  21.398   5.517 -0.0088  0.0219  0.0565
    1W        W61963   2.918  29.348   8.502 -0.2397  0.2135  0.1221
    1W        W61964   2.389  18.619   2.790 -0.1523 -0.0164  0.0573
    1W        W61965  15.540  15.434   6.290 -0.0419  0.0447  0.1582
    1W        W61966  11.918  21.771   0.208 -0.0920  0.1537  0.4085
    1W        W61967  15.823   4.670   0.607 -0.2314  0.0959  0.1169
    1W        W61968  23.267  15.783   1.522  0.1174  0.3553  0.0352
    1W        W61969  24.354  24.413   1.706  0.1143 -0.0582 -0.1616
    1W        W61970   8.319  28.821   6.715 -0.2165  0.0987 -0.1232
    1W        W61971  18.748  27.952   3.125 -0.1772  0.2932 -0.2914
    1W        W61972   7.009   4.012   8.833 -0.1650 -0.1610  0.0974
    1W        W61973  17.271  24.246   1.190 -0.2123 -0.1945 -0.2044
    1W        W61974   0.646   4.380   7.761  0.0070 -0.3213 -0.3276
    1W        W61975   0.071  18.173   6.993  0.1920  0.1006  0.1102
    1W        W61976  28.943   2.841   8.674  0.2869  0.1232  0.0381
    1W        W61977  26.600  26.499   1.075  0.2890  0.0185  0.2063
    1W        W61978  17.193  12.027   1.731  0.0359 -0.0257 -0.1252
    1W        W61979  24.467  16.467   7.057  0.0489 -0.3033 -0.3245
    1W        W61980   5.911  11.285   2.713 -0.2487  0.0973 -0.1049
    1W        W61981  26.955   1.279   0.607 -0.3498  0.0007 -0.1671
    1W        W61982  21.908  24.929   0.608  0.3015 -0.2224  0.0971
    1W        W61983   4.753  28.333   8.210  0.0685  0.2633 -0.1573
    1W        W61984  22.866  26.042   1.703  0.0188 -0.3858  0.0893
    1W        W61985  20.832  14.979   6.638 -0.0406  0.1274  0.0102
    1W        W61986  13.128  18.130   7.501 -0.1858 -0.0339  0.0955
    1W        W61987   5.350  18.427   9.489  0.1838  0.0496  0.0126
    1W        W61988  10.098  28.855   8.145 -0.0649  0.3172  0.0726
    1W        W61989   1.767  26.883   1.043 -0.1606 -0.1524 -0.0593
    1W        W61990  18.735   9.438   1.574 -0.1765  0.0208 -0.1591
    1W        W61991   8.420   9.611   8.300  0.0169  0.0019  0.0155
    1W        W61992   9.929   0.024   2.063 -0.1155  0.1340 -0.1581
    1W        W61993   0.975  23.152   1.025  0.1434 -0.0031 -0.0993
    1W        W61994  12.405  20.683   0.922 -0.3349 -0.2310 -0.2514
    1W        W61995   4.420  28.516   1.771 -0.0386 -0.2610  0.0118
    1W        W61996   9.861  12.294   8.851 -0.2733  0.0188 -0.0872
    1W        W61997  22.234  28.981   0.541  0.1940  0.1226  0.3039
    1W        W61998   1.968  15.026   8.215 -0.0882 -0.0659  0.0273
    1W        W61999  15.975   2.060   8.364 -0.1704  0.1406  0.2191
    1W        W62000  12.408  18.173   7.046 -0.1121 -0.1500 -0.0997
    1W        W62001   2.337  23.265   6.993  0.1201 -0.2306 -0.0690
    1W        W62002  15.950  25.329   6.953  0.2122 -0.0849 -0.1040
    1W        W62003  19.083  11.447   8.086  0.1902 -0.0889  0.0768
    1W        W62004  18.979  14.193   9.239 -0.1853 -0.1502 -0.2030
    1W        W62005   0.028   3.311   6.966 -0.0006  0.2657 -0.0432
    1W        W62006  10.464  19.326   0.297 -0.0345  0.5462 -0.1239
    1W        W62007  12.289  25.493   6.282 -0.0177  0.0402  0.0961
    1W        W62008  29.737   9.948   6.778  0.0131 -0.2884 -0.2065
    1W        W62009   9.439  14.922   8.823  0.1291 -0.1497 -0.2830
    1W        W62010  15.237  25.965   7.683  0.0720 -0.1573  0.0798
    1W        W62011  23.944  15.163   8.278 -0.3156 -0.0422 -0.0930
    1W        W62012  17.664   3.890   2.960  0.1634  0.0065  0.0813
    1W        W62013  12.373  24.714   0.713  0.1565  0.1069  0.1064
    1W        W62014  16.816  24.584   8.970 -0.4904 -0.2824  0.3057
    1W        W62015  18.365  20.608   0.980 -0.2497  0.2384  0.0942
    1W        W62016  22.072  26.801   7.892 -0.3621  0.0656 -0.1237
    1W        W62017  21.450  11.206   0.625 -0.3283  0.1454  0.0770
    1W        W62018   6.218  28.830   5.648 -0.1479 -0.0482 -0.2130
    1W        W62019  27.390  15.861   7.879  0.0072  0.1940  0.0550
    1W        W62020  27.246   9.384   7.616  0.1841  0.2415 -0.2788
    1W        W62021  14.993  18.050   7.539  0.1500  0.0855 -0.0216
    1W        W62022  19.621   7.201   8.293  0.1581 -0.1402  0.1763
    1W        W62023  14.636   7.462   8.410  0.0265 -0.4215  0.1413
    1W        W62024  18.677  15.294   6.719 -0.0610 -0.1046 -0.3922
    1W        W62025  12.378  17.715   2.683 -0.0353  0.2335  0.0531
    1W        W62026  13.875  21.270   1.064  0.1580 -0.0605 -0.2640
    1W        W62027   8.708   1.749   8.865  0.3288 -0.0852 -0.1955
    1W        W62028   9.265   5.790   6.651 -0.4022  0.1492 -0.0496
    1W        W62029   0.572  10.255   5.939  0.1884  0.2170  0.0217
    1W        W62030  27.093  10.083   0.669 -0.3854 -0.1051  0.2663
    1W        W62031   2.827  23.163   7.123  0.1797 -0.1549 -0.2181
    1W        W62032  18.915   9.480   3.684 -0.0853 -0.0280  0.0889
    1W        W62033   1.197  22.428   0.442  0.2082  0.0001 -0.2436
    1W        W62034  13.752  15.705   1.481  0.2513 -0.1311 -0.0250
    1W        W62035  18.932   6.484   8.667 -0.0986 -0.0672  0.1695
    1W        W62036  25.976  24.029   6.034 -0.1818 -0.0395  0.0363
    1W        W62037   3.595   2.227   1.431 -0.0432  0.0149 -0.1078
    1W        W62038  14.280  16.662   1.800  0.0264  0.0232  0.1060
    1W        W62039  11.641  14.299   6.649 -0.0939  0.0674  0.0951
    1W        W62040  23.563  23.190   0.638 -0.2279  0.1040  0.0419
    1W        W62041  10.872  20.408   0.822  0.0989  0.1983 -0.0789
    1W        W62042   0.280  10.314   0.174 -0.3306 -0.0079  0.1156
    1W        W62043  17.798  29.575   0.299  0.3817  0.2032  0.2670
    1W        W62044  24.299   9.203   0.941 -0.1290 -0.0387 -0.4124
    1W        W62045  29.743  17.321   7.641 -0.1166 -0.0939 -0.0416
    1W        W62046   9.471   6.275   0.716  0.1863 -0.1169  0.1380
    1W        W62047  27.012  22.575   9.414  0.3111 -0.1244  0.0464
    1W        W62048  22.959   4.690   3.928 -0.0522 -0.2653 -0.3548
    1W        W62049  11.530   9.498   2.217  0.1674  0.0472  0.2722
    1W        W62050  29.572   8.181   7.124  0.1915  0.1718 -0.0859
    1W        W62051   8.661  10.154   7.719 -0.0301 -0.0790  0.2230
    1W        W62052  29.187  27.091   0.503  0.3487 -0.2817  0.1445
    1W        W62053  17.946  13.747   1.569 -0.0425  0.0313 -0.3005
    1W        W62054   2.123   8.632   0.134  0.0679 -0.1752  0.1415
    1W        W62055  22.752   9.965   0.502  0.0128 -0.1932  0.0019
    1W        W62056  26.965  24.425   1.267 -0.2965 -0.3729  0.1081
    1W        W62057  18.985  21.103   0.237 -0.1336 -0.0801 -0.4895
    1W        W62058  12.138   3.411   0.167 -0.0858 -0.1939 -0.1133
    1W        W62059   3.650   0.475   8.954  0.2085 -0.0564 -0.0407
    1W        W62060   9.677   2.635   8.250  0.4742 -0.3232  0.0535
    1W        W62061   4.517  21.549   8.236 -0.0950  0.2671  0.1811
    1W        W62062  17.545   8.297   2.125 -0.0187  0.3160 -0.0346
    1W        W62063   4.122  19.836   7.365  0.0488 -0.2502  0.0109
    1W        W62064   8.119   2.618   0.685 -0.1575  0.0035 -0.0773
    1W        W62065  27.816   4.858   0.443  0.0808 -0.2726 -0.1074
    1W        W62066  15.797  29.402   8.310  0.0013  0.2609  0.2860
    1W        W62067   8.053   6.150   6.311 -0.0020  0.3341  0.2550
    1W        W62068   4.490  23.264   8.080  0.0521 -0.0794 -0.0965
    1W        W62069  20.866   0.037   1.054 -0.1355  0.1304 -0.2102
    1W        W62070  24.494  18.734   2.199 -0.3842  0.1595 -0.4587
    1W        W62071  15.883   6.456   1.957 -0.0256 -0.0985 -0.0544
    1W        W62072   6.212  25.259   6.389  0.0094 -0.1250 -0.0424
    1W        W62073  19.018   8.621   8.462  0.0195  0.0315  0.0989
    1W        W62074  15.915  13.976   0.058 -0.3069 -0.0867 -0.5030
    1W        W62075  23.523  27.366   2.943  0.3169  0.3302  0.0537
    1W        W62076  11.123  15.198   2.967 -0.1061  0.0971  0.1815
    1W        W62077  28.351  25.070   6.509 -0.0435 -0.3083 -0.2574
    1W        W62078  19.350   2.434   1.007 -0.4599 -0.0651 -0.2477
    1W        W62079  24.437   1.338   8.825 -0.1062 -0.1334  0.0391
    1W        W62080   2.006  17.205   7.888 -0.0656 -0.2076 -0.1379
    1W        W62081   3.169   0.155   9.168  0.2064  0.3050  0.1791
    1W        W62082  24.090  14.914   9.236 -0.1065  0.1455 -0.0646
    1W        W62083   1.899  14.670   1.184 -0.2788 -0.1343 -0.3806
    1W        W62084   9.594   1.728   6.519 -0.2441  0.0534 -0.2876
    1W        W62085  11.033   3.193   8.686 -0.0847 -0.0444 -0.0647
    1W        W62086  21.042  18.011   6.397  0.0605 -0.1688  0.1403
    1W        W62087  13.319  19.501   6.376 -0.1493 -0.0741  0.0775
    1W        W62088  20.139  20.511   8.402 -0.0135  0.2065  0.1289
    1W        W62089  26.579  19.372   7.945 -0.0458  0.0588 -0.1280
    1W        W62090  22.760  22.415   2.273 -0.1142 -0.2960  0.0771
    1W        W62091  26.588   1.582   0.178 -0.2273  0.1622  0.3361
    1W        W62092  24.382  26.505   1.286  0.0378 -0.0520 -0.0530
    1W        W62093  17.484  18.089   7.072 -0.0081  0.1289  0.0482
    1W        W62094  11.524   4.883   1.241  0.1766 -0.1694 -0.0341
    1W        W62095  22.724  10.478   9.179  0.1342  0.0734 -0.0129
    1W        W62096  27.815  15.979   0.554 -0.1734 -0.0930  0.1080
    1W        W62097   5.715  15.214   2.174  0.0287 -0.1650 -0.1123
    1W        W62098   6.239  15.154   6.982 -0.1475  0.2103  0.0848
    1W        W62099  13.555  27.918   0.153  0.3367  0.1052  0.3997
    1W        W62100  22.687  22.255   7.542 -0.0437  0.0519 -0.3160
    1W        W62101  14.302  25.779   6.947 -0.2686  0.1893 -0.0695
    1W        W62102   7.809  28.525   0.969 -0.0773 -0.1338  0.0396
    1W        W62103  22.882  21.014   6.976  0.2051  0.2476 -0.2987
    1W        W62104  23.857  16.085   2.006 -0.3732 -0.1356  0.3578
    1W        W62105   4.338  15.004   7.891  0.0753 -0.1605  0.1682
    1W        W62106  15.917   9.313   1.740 -0.1353  0.1342 -0.3267
    1W        W62107   8.414   4.863   9.133 -0.0105 -0.0906 -0.0670
    1W        W62108   8.078  12.108   0.487 -0.2736  0.1591 -0.3250
    1W        W62109   5.211  12.035   8.208  0.1310 -0.2704 -0.1303
    1W        W62110   6.072  13.000   1.010 -0.0598 -0.1789 -0.1365
    1W        W62111   2.176  17.263   7.124 -0.1226  0.0227  0.0335
    1W        W62112  20.485  12.043   2.120  0.0306  0.2398 -0.0424
    1W        W62113  15.071   0.814   8.922 -0.0081  0.0469  0.0887
    1W        W62114  13.631  12.886   8.790  0.1519 -0.0908 -0.1928
    1W        W62115   8.421  20.108   5.798  0.2348  0.1549  0.0493
    1W        W62116  14.080   9.952   8.793  0.0207 -0.0280 -0.0609
    1W        W62117  13.486   4.075   8.584 -0.2670 -0.0072  0.0545
    1W        W62118  11.419  18.624   0.391 -0.1018  0.0911  0.1962
    1W        W62119  10.501  16.250   7.347 -0.0280 -0.1116  0.1329
    1W        W62120   8.159  13.968   0.853 -0.1702  0.3287  0.0921
    1W        W62121   6.528   5.643   6.777 -0.2555  0.3054 -0.0873
    1W        W62122   2.355  12.091   0.702 -0.0974 -0.1083  0.1150
    1W        W62123   6.883  14.978   0.682 -0.1521 -0.1703 -0.2176
    1W        W62124  22.168   1.110   2.043 -0.1024 -0.1138 -0.0685
    1W        W62125  16.063   6.792   2.254  0.2288 -0.0751  0.2077
    1W        W62126   0.148   5.637   8.327 -0.0112 -0.1191  0.0630
    1W        W62127   9.139  15.170   0.952 -0.1324  0.0318 -0.0005
    1W        W62128  19.585  29.391   7.898 -0.2748 -0.0932  0.4297
    1W        W62129  21.626  15.861   7.588 -0.0114 -0.2403 -0.0585
    1W        W62130  10.052  11.497   1.930  0.3703  0.0165 -0.1178
    1W        W62131  27.679  21.347   1.216  0.2447 -0.1535  0.1181
    1W        W62132   2.138  18.451   3.194  0.0773  0.1016  0.2521
    1W        W62133  13.350  24.419   5.794  0.0018 -0.1506 -0.1162
    1W        W62134  11.660   9.734   7.838 -0.1845 -0.3092 -0.0296
    1W        W62135  11.169  28.448   0.845 -0.1808 -0.0436  0.0614
    1W        W62136   4.816  12.419   6.220 -0.0472 -0.0349 -0.2456
    1W        W62137  18.285  14.975   1.738 -0.1739 -0.0119 -0.1522
    1W        W62138  23.978  18.167   0.681  0.0930 -0.0434 -0.0377
    1W        W62139   4.793   0.571   0.435  0.0664  0.0645 -0.2212
    1W        W62140   3.972  11.682   8.332 -0.2907  0.0001 -0.1261
    1W        W62141  23.625  15.151   9.285  0.0855 -0.0713 -0.2999
    1W        W62142  10.384  24.113   6.676  0.0944  0.1253  0.0122
    1W        W62143  13.954   1.734   0.758 -0.1488  0.0515 -0.0486
    1W        W62144  18.211  21.105   1.814 -0.2809 -0.4604  0.2916
    1W        W62145  24.482  23.254   0.705 -0.0055  0.1993  0.3236
    1W        W62146  26.059  25.923   9.363 -0.0078 -0.0508  0.0265
    1W        W62147   2.367   2.364   2.241  0.3199 -0.1991  0.0020
    1W        W62148  18.572  21.051   0.580 -0.0766  0.0143  0.1533
    1W        W62149  25.278  22.406   1.223 -0.1795  0.1760 -0.0688
    1W        W62150  16.482   6.249   1.708  0.1588 -0.3634  0.0368
    1W        W62151   1.668  24.171   8.650  0.1998  0.4304 -0.0045
    1W        W62152  24.370   9.901   8.105 -0.0154  0.1404 -0.1554
    1W        W62153  24.790  12.019   0.881  0.0828  0.1406 -0.0630
    1W        W62154   9.559   0.958   2.336 -0.3630  0.1675 -0.2075
    1W        W62155  18.236  16.935   8.097 -0.2514 -0.0194  0.0578
    1W        W62156  18.964  27.554   1.106 -0.0788 -0.2294 -0.0808
    1W        W62157   2.165  18.960   9.033  0.0346  0.0870 -0.0234
    1W        W62158   1.437  12.261   8.387  0.1137  0.1786 -0.0722
    1W        W62159  28.329   7.712   8.983 -0.0391 -0.0132 -0.0913
    1W        W62160   0.870   2.273   0.693 -0.2355 -0.0930 -0.0885
    1W        W62161   6.532   7.850   8.535 -0.1184 -0.1239 -0.0756
    1W        W62162  28.250  17.613   7.625  0.3136  0.0496 -0.1565
    1W        W62163  26.505  17.586   1.451 -0.0855 -0.2786  0.3126
    1W        W62164  20.170   9.570   9.520 -0.0542  0.0826  0.0148
    1W        W62165  12.431  16.202   0.155  0.1474  0.1831  0.0510
    1W        W62166   4.179  21.500   0.465  0.1351  0.0154 -0.1877
    1W        W62167   9.638  15.886   7.846  0.0074  0.2503 -0.1854
    1W        W62168  23.460   3.418   1.669 -0.2089 -0.2139 -0.0784
    1W        W62169   0.022  14.227   1.094 -0.0022 -0.2807 -0.1544
    1W        W62170  22.383  26.221   1.669  0.2082  0.0924  0.1897
    1W        W62171  26.927  20.954   9.397 -0.2439  0.2640  0.0117
    1W        W62172  21.851   7.265   7.567  0.0026  0.2700 -0.0865
    1W        W62173  14.414  12.632   0.222 -0.1237 -0.0105 -0.1609
    1W        W62174  15.220   4.171   3.152 -0.0392  0.0287 -0.1900
    1W        W62175  22.329  25.055   2.310  0.1557  0.0564 -0.0193
    1W        W62176  26.472  20.177   9.202 -0.0522  0.1491 -0.0183
    1W        W62177  14.580  10.471   8.103 -0.1106 -0.0332  0.0251
    1W        W62178  23.353  29.307   1.413 -0.3187  0.2117  0.0770
    1W        W62179  19.926  28.751   8.457  0.0472  0.3289 -0.0834
    1W        W62180  15.042  18.174   9.224 -0.0765  0.0752 -0.4918
    1W        W62181  25.161  13.629   0.750 -0.3083 -0.1329  0.1892
    1W        W62182  14.317  27.146   7.544  0.0265 -0.1644  0.1120
    1W        W62183  10.205   6.141   6.598  0.2752  0.1549  0.1809
    1W        W62184  16.864  14.609   2.209 -0.1322  0.1475  0.2292
    1W        W62185  22.946   2.775   8.929 -0.4186 -0.0168 -0.1028
    1W        W62186   0.784  14.681   8.731 -0.0372  0.1100 -0.1597
    1W        W62187  12.780   0.450   0.464  0.1405  0.1048  0.0970
    1W        W62188  15.300   8.828   2.350 -0.0351  0.4317 -0.1109
    1W        W62189  29.112  18.818   1.420 -0.1537 -0.0626  0.2112
    1W        W62190  10.462  25.088   8.865  0.1884  0.4698  0.3614
    1W        W62191   8.935   1.821   7.856 -0.0942  0.0960  0.1278
    1W        W62192  25.448  16.096   0.863  0.0837  0.3797  0.0748
    1W        W62193  13.681  26.061   2.133 -0.0616  0.2280  0.0156
    1W        W62194  26.570  11.898   8.895  0.0536 -0.1137  0.3239
    1W        W62195   5.305   4.822   6.625 -0.1977 -0.0171 -0.2085
    1W        W62196  13.834  29.170   1.331  0.2251 -0.2486 -0.0752
    1W        W62197  23.551  16.464   8.860 -0.2922 -0.1267 -0.1460
    1W        W62198   9.237  28.346   0.809 -0.5805 -0.1118 -0.0614
    1W        W62199  11.648  14.360   0.351  0.0455 -0.0447 -0.0065
    1W        W62200  13.701  12.791   7.732  0.5285  0.0132 -0.3567
    1W        W62201   7.347  19.246   8.709  0.2158 -0.2968  0.0318
    1W        W62202  23.110   2.032   8.897  0.4402 -0.1159 -0.1282
    1W        W62203   2.830  28.838   1.451  0.1936 -0.3448 -0.1957
    1W        W62204   8.756  22.727   6.187 -0.2059  0.2214  0.0949
    1W        W62205  24.036   6.288   9.253 -0.0156  0.0118 -0.0407
    1W        W62206  23.547  10.023   3.115  0.0159  0.0786 -0.1711
    1W        W62207  20.889   6.633   0.763  0.0852  0.3029  0.1268
    1W        W62208  19.914  23.767   9.267  0.0502  0.0680  0.1158
    1W        W62209  12.791  28.472   8.818 -0.0438  0.0223 -0.1001
    1W        W62210  13.171   9.094   9.523 -0.0748  0.1296 -0.2202
    1W        W62211  27.958  25.387   6.748  0.0259 -0.0301 -0.2884
    1W        W62212  26.749  26.572   1.992 -0.1918 -0.1382 -0.1758
    1W        W62213  10.620  18.832   3.071  0.0031 -0.1851  0.2543
    1W        W62214  15.684  18.299   1.811 -0.2690  0.4880  0.0765
    1W        W62215  22.686  18.697   9.383 -0.0002 -0.0157  0.1872
    1W        W62216   4.792  23.741   1.338 -0.2025  0.5075 -0.2819
    1W        W62217  28.016   0.690   3.042  0.1804 -0.1558  0.5641
    1W        W62218  21.333  20.917   6.246 -0.1887 -0.1449  0.0521
    1W        W62219  26.199  21.656   0.858 -0.0315 -0.0696  0.0645
    1W        W62220   0.438  18.011   2.670  0.1713 -0.2033  0.3627
    1W        W62221  13.668   1.312   7.089 -0.3030 -0.0993 -0.1154
    1W        W62222  27.173  25.867   7.044 -0.1698  0.1819  0.0478
    1W        W62223   4.143  23.418   9.404 -0.0804 -0.2148 -0.0799
    1W        W62224  23.034  25.667   9.527  0.2043 -0.3823 -0.2485
    1W        W62225   2.400  21.374   8.624  0.0113 -0.1468 -0.2161
    1W        W62226   2.613  24.091   1.608 -0.2626  0.0541  0.2458
    1W        W62227   6.949  28.931   8.240  0.0126  0.2594  0.0716
    1W        W62228  28.846  21.403   2.528 -0.1541 -0.2396  0.0658
    1W        W62229  26.846   2.296   0.998  0.1164  0.0990  0.2557
    1W        W62230  20.499  13.611   0.007  0.2976 -0.1273 -0.2639
    1W        W62231   8.867  25.745   1.441 -0.1415  0.2665  0.3324
    1W        W62232   8.461  28.099   9.468 -0.1385 -0.1848  0.4220
    1W        W62233  11.156  13.935   2.559  0.1185  0.2058 -0.0623
    1W        W62234  17.333  23.590   8.800  0.0618  0.0576  0.0478
    1W        W62235   0.707  13.927   0.570 -0.0491  0.0636  0.2050
    1W        W62236   2.848  16.494   1.771 -0.3058 -0.0099 -0.0225
    1W        W62237  26.109  12.873   2.562  0.0457 -0.1151  0.0019
    1W        W62238   7.016  14.328   7.772 -0.1677 -0.0543 -0.1583
    1W        W62239  21.366  18.391   9.204 -0.1197 -0.3461 -0.2502
    1W        W62240  22.897  20.397   9.331  0.3303  0.0264 -0.3742
    1W        W62241   1.325  13.038   9.034  0.2205  0.2244  0.2879
    1W        W62242   3.946  20.321   1.456 -0.1197 -0.1270 -0.1472
    1W        W62243  14.270  29.432   0.275 -0.1292  0.2879  0.0557
    1W        W62244  28.952  29.004   1.219  0.2037  0.0431 -0.0764
    1W        W62245  25.896  21.937   7.183 -0.1218  0.4464  0.0641
    1W        W62246  21.393   9.909   8.907 -0.2401  0.0330 -0.0911
    1W        W62247   3.396  23.268   2.258 -0.6160  0.0231  0.1636
    1W        W62248  19.552  21.907   1.625  0.1639  0.1326  0.2140
    1W        W62249  10.999  21.303   6.811  0.1474 -0.0058 -0.0064
    1W        W62250   1.175  28.591   1.622 -0.1252  0.3406 -0.2470
    1W        W62251  19.258   3.866   1.199 -0.2052 -0.1135  0.3022
    1W        W62252   3.565   5.608   1.450 -0.2557 -0.2840 -0.2215
    1W        W62253  27.896  20.376   6.468 -0.4733 -0.1381  0.0889
    1W        W62254   5.823  17.413   1.038 -0.0630 -0.2500  0.2185
    1W        W62255  23.188   6.351   1.887 -0.0121 -0.2920 -0.1929
    1W        W62256  24.014  24.843   0.288 -0.1496 -0.1189  0.0805
    1W        W62257   1.709  11.140   0.554 -0.0108  0.0094 -0.1702
    1W        W62258   2.550  28.983   8.385 -0.2792 -0.1188  0.2743
    1W        W62259   8.155  16.611   9.336 -0.0723  0.0258  0.2673
    1W        W62260   5.961   2.903   8.967  0.0176  0.0821  0.2594
    1W        W62261  22.993  17.729   1.003 -0.0042  0.0549  0.2784
    1W        W62262  27.699  23.757   7.260 -0.4361 -0.1763  0.0660
    1W        W62263  21.022  19.821   0.456 -0.0707 -0.2210 -0.2213
    1W        W62264   3.277  10.011   5.914  0.1361 -0.2247 -0.2105
    1W        W62265  27.470   6.226   9.089  0.3163  0.0471  0.0237
    1W        W62266  29.223  27.026   5.491  0.2175 -0.1162  0.0383
    1W        W62267   5.576  26.792   7.481  0.0483 -0.0028 -0.0540
    1W        W62268  16.702   6.593   8.910  0.1379 -0.1201  0.1011
    1W        W62269  29.515   6.344   2.325 -0.1912  0.3348  0.0033
    1W        W62270   7.398   3.920   2.792 -0.0960 -0.1042 -0.2256
    1W        W62271   5.392   3.661   1.749  0.2665  0.0996  0.1928
    1W        W62272  24.941  21.439   7.771  0.0240 -0.2379 -0.1790
    1W        W62273  20.569  12.435   9.489 -0.4990 -0.3210 -0.0104
    1W        W62274  28.455   5.665   7.956  0.2356 -0.0508 -0.0535
    1W        W62275   1.171  18.559   1.343  0.1094  0.1534 -0.0786
    1W        W62276  16.558  16.177   0.714 -0.1602  0.3656 -0.3008
    1W        W62277  17.105   5.174   8.709 -0.1689  0.0229 -0.1690
    1W        W62278  12.482  17.013   8.030  0.1684  0.0118 -0.0241
    1W        W62279  14.061   8.314   0.746  0.0609  0.0681  0.1800
    1W        W62280   5.167  12.978   1.749  0.0801 -0.3283 -0.2217
    1W        W62281   0.771  13.332   1.146  0.1789  0.0539 -0.2502
    1W        W62282   9.244  20.612   6.682  0.1094  0.1254 -0.0271
    1W        W62283  22.900   3.243   9.197 -0.0227  0.0256  0.3785
    1W        W62284  27.133   1.090   7.852  0.1842 -0.1918  0.1538
    1W        W62285   6.941  10.173   9.035  0.3017 -0.0798  0.0412
    1W        W62286  15.710   2.388   2.572 -0.5953  0.1445 -0.3466
    1W        W62287  28.504  23.860   1.316  0.2198 -0.0022 -0.0584
    1W        W62288  25.763  25.521   6.974 -0.3657 -0.1175 -0.0111
    1W        W62289  25.164   5.352   0.100  0.0017  0.0520 -0.0702
    1W        W62290  13.045  12.683   9.071  0.1643  0.0337 -0.0435
    1W        W62291  16.961  21.675   8.994 -0.3507  0.0562 -0.2543
    1W        W62292   7.500   4.902   2.127  0.1735 -0.0477  0.0221
    1W        W62293  20.827   1.597   1.400  0.0672 -0.2235 -0.1182
    1W        W62294  10.737  12.602   6.462 -0.3550 -0.2186 -0.2409
    1W        W62295  26.660   8.540   2.315 -0.2603  0.1284 -0.0278
    1W        W62296   3.653   5.240   8.176 -0.0423 -0.0528 -0.0958
    1W        W62297   0.670  18.600   8.598  0.3938  0.0682  0.1358
    1W        W62298  28.241  23.790   1.700  0.0353 -0.1864 -0.1167
    1W        W62299   2.785   4.292   2.908 -0.4364  0.0477 -0.0223
    1W        W62300  19.769   7.493   2.261 -0.2640  0.0491  0.0136
    1W        W62301  13.082   4.649   3.626  0.1089 -0.1856 -0.0932
    1W        W62302  27.884  25.883   7.772  0.0447  0.0709  0.2300
    1W        W62303  28.072  13.689   2.120  0.1706 -0.1982 -0.1402
    1W        W62304   0.980   9.753   0.162 -0.0443 -0.0639 -0.3231
    1W        W62305  28.742   0.743   9.114  0.4228  0.0249 -0.0560
    1W        W62306   7.690   0.112   1.243 -0.1382  0.1296  0.0504
    1W        W62307  18.468   0.977   8.575 -0.0245  0.0773 -0.2336
    1W        W62308  27.248  23.938   7.419 -0.0694 -0.3791  0.0211
    1W        W62309   4.062   0.136   1.696 -0.2064 -0.2877  0.0190
    1W        W62310  23.823   4.567   8.871  0.1354  0.0256 -0.0231
    1W        W62311  14.277  19.402   7.054  0.2144  0.0444 -0.1952
    1W        W62312   4.706   4.815   8.707 -0.3502  0.2150 -0.2693
    1W        W62313  16.226  19.201   7.712 -0.2396 -0.1498 -0.3680
    1W        W62314  21.504  12.021   2.179 -0.0358 -0.2636  0.2803
    1W        W62315  11.062  22.699   8.481 -0.3896  0.1560 -0.1307
    1W        W62316  14.689  23.499   0.482  0.2679  0.0815  0.1448
    1W        W62317  27.674   3.740   1.845 -0.0075 -0.1387  0.2377
    1W        W62318   0.522  20.286   7.368 -0.1662 -0.1836 -0.2431
    1W        W62319  21.339  24.854   1.499  0.0900  0.1242  0.1660
    1W        W62320  23.415   1.647   8.791 -0.0801  0.1806 -0.1267
    1W        W62321  26.287  24.349   2.720  0.1805  0.2233 -0.2226
    1W        W62322   5.317  26.350   6.532 -0.0802 -0.1520 -0.0197
    1W        W62323  27.746  22.541   1.532 -0.2164 -0.0430  0.0750
    1W        W62324  10.075   7.660   2.175 -0.0141 -0.0374 -0.0295
    1W        W62325   5.768   8.580   2.363 -0.2236 -0.0575 -0.2122
    1W        W62326  12.347  21.799   7.544 -0.3597 -0.3721 -0.1801
    1W        W62327  10.527  28.536   9.301 -0.0044  0.2525  0.0668
    1W        W62328   4.403  13.161   8.453  0.1993  0.2739  0.1139
    1W        W62329   8.844  20.818   0.572  0.1082  0.0561 -0.0182
    1W        W62330   9.049   9.670   1.737 -0.1640 -0.0557 -0.2903
    1W        W62331  14.298  26.219   1.562 -0.0025 -0.0293  0.2081
    1W        W62332  21.721  27.824   8.720  0.1153  0.1360 -0.1265
    1W        W62333  28.875  22.894   2.295 -0.0474  0.1599 -0.0273
    1W        W62334   8.379  13.650   1.837  0.0055 -0.1799 -0.2585
    1W        W62335  28.337  19.030   1.933  0.1470 -0.2064 -0.2181
    1W        W62336  25.048  17.752   1.132 -0.1132 -0.3748  0.2506
    1W        W62337  28.852  19.601   7.107  0.0074 -0.0844  0.1596
    1W        W62338  21.305   8.940   2.563 -0.0112 -0.2624  0.3719
    1W        W62339   4.154  28.030   7.841  0.0669 -0.1522  0.1676
    1W        W62340  27.136  28.102   1.790 -0.1624 -0.1105  0.0067
    1W        W62341  17.489  12.210   0.014 -0.2482  0.0862  0.2601
    1W        W62342  13.914  25.211   7.604 -0.1635  0.0852  0.3732
    1W        W62343  12.676  26.013   7.513  0.0768 -0.3015  0.1006
    1W        W62344   4.431   4.957   1.602 -0.0614 -0.3780 -0.1309
    1W        W62345  19.764  19.035   0.240 -0.0610  0.0952  0.2103
    1W        W62346  12.214   6.416   2.377 -0.1154 -0.0352 -0.0146
    1W        W62347  16.063  15.588   8.419 -0.1390 -0.1552  0.1174
    1W        W62348   3.656  10.543   7.381  0.2268  0.1820  0.0630
    1W        W62349   9.594  14.434   7.666 -0.1712  0.4092  0.2554
    1W        W62350  21.139  23.333   7.914  0.0707  0.1476 -0.0991
    1W        W62351  22.249   1.615   1.042  0.4445  0.3578  0.2921
    1W        W62352   5.818  15.689   0.758  0.2151  0.0767 -0.0575
    1W        W62353  28.261  15.014   2.110  0.0057  0.1216  0.2455
    1W        W62354   9.065  29.273   6.860 -0.2381 -0.1292 -0.1055
    1W        W62355   7.331   3.945   9.361  0.0571  0.3750  0.3355
    1W        W62356  13.529  21.972   1.030  0.0785  0.3047  0.1361
    1W        W62357   4.999   0.209   9.034 -0.2816  0.0323  0.2153
    1W        W62358  11.448   8.202   9.433  0.1048  0.0961 -0.3196
    1W        W62359   9.173  16.742   2.403 -0.2186 -0.0945  0.5702
    1W        W62360   0.463  16.393   1.574 -0.0340  0.3248  0.3948
    1W        W62361  12.876  24.569   6.413 -0.0189  0.1008  0.3424
    1W        W62362   3.827   4.187   1.502 -0.2452 -0.3902  0.1521
    1W        W62363  18.461   3.460   0.843 -0.3529  0.3772  0.0977
    1W        W62364  12.619   6.097   1.133 -0.3255 -0.1429 -0.3068
    1W        W62365  21.372  23.926   1.504  0.1332  0.3473  0.3890
    1W        W62366   8.494  20.778   7.527  0.0453  0.1032  0.0507
    1W        W62367  10.266   4.923   1.918 -0.0080 -0.1382 -0.3142
    1W        W62368  28.635  22.345   7.387 -0.1751 -0.1266  0.2490
    1W        W62369   7.047  18.767   7.344  0.1564  0.0556 -0.1406
    1W        W62370   4.491  24.499   0.821 -0.4538  0.1709  0.4422
    1W        W62371  29.528   1.084   0.604  0.1835  0.1467  0.0927
    1W        W62372  20.719  18.481   7.522  0.0878 -0.1946  0.0907
    1W        W62373   7.524   3.544   7.764  0.0938 -0.1612  0.1067
    1W        W62374  12.118  28.617   8.500 -0.0757  0.1186 -0.1999
    1W        W62375  21.446  11.380   1.225 -0.2812 -0.0577 -0.1480
    1W        W62376  15.324   6.023   2.468  0.1193 -0.0682 -0.1102
    1W        W62377  15.647  24.432   6.345 -0.0871 -0.1857  0.0929
    1W        W62378  26.503  23.152   8.037  0.1151 -0.1431 -0.2297
    1W        W62379  10.385  20.281   9.439  0.0340  0.3246 -0.3161
    1W        W62380  26.960  10.589   8.654 -0.3430 -0.1422 -0.0422
    1W        W62381  20.479  14.236   7.218  0.0562  0.0816  0.0610
    1W        W62382  10.083  11.503   1.299  0.3320  0.3151  0.0629
    1W        W62383  12.051   1.910   2.866 -0.1280  0.0353  0.0078
    1W        W62384  14.375  24.389   6.630  0.0679 -0.1054  0.1274
    1W        W62385  12.710  16.481   8.058 -0.2464 -0.1906  0.1061
    1W        W62386   0.532   1.849   9.404 -0.2223  0.2324  0.2143
    1W        W62387   3.172  25.582   5.156  0.3538 -0.0835 -0.2117
    1W        W62388  27.370  13.194   0.162  0.1358 -0.4272  0.1620
    1W        W62389   4.093  19.279   6.880  0.0042 -0.1460  0.0698
    1W        W62390  20.069  26.995   0.466  0.1501  0.1513 -0.0513
    1W        W62391  17.523  26.547   8.528 -0.1010 -0.1300  0.1794
    1W        W62392  18.919  29.793   3.086 -0.0682 -0.1225  0.1413
    1W        W62393   4.208  28.964   0.495 -0.2023  0.0647 -0.1292
    1W        W62394  28.609  20.571   7.804  0.1031 -0.1008 -0.0550
    1W        W62395  28.611   2.487   8.917 -0.1566 -0.3017 -0.0258
    1W        W62396  29.389  23.267   1.089  0.4445  0.1441  0.2566
    1W        W62397   7.185  20.858   9.393 -0.1154 -0.0042 -0.1136
    1W        W62398  20.013  25.868   6.293 -0.0138  0.3660  0.2128
    1W        W62399  11.581  13.727   6.793 -0.0962  0.2036 -0.1164
    1W        W62400   7.461   3.139   1.177  0.1310  0.0512 -0.2372
    1W        W62401   9.559  15.010   1.302  0.0028 -0.1924 -0.1637
    1W        W62402  23.734  13.060   7.573  0.3045  0.0081 -0.3374
    1W        W62403   5.478  13.465   0.464  0.0104 -0.2334 -0.2775
    1W        W62404  20.212   3.050   2.155 -0.2300  0.0041 -0.1013
    1W        W62405  27.165   8.702   0.748 -0.2124  0.0778  0.2633
    1W        W62406  14.545  27.478   7.031 -0.1180 -0.0124  0.1331
    1W        W62407   2.128  24.898   6.192  0.0239 -0.2191 -0.3100
    1W        W62408  24.866   2.115   3.420  0.4201 -0.1513 -0.0665
    1W        W62409   4.677   8.679   1.628 -0.0962  0.0532 -0.0889
    1W        W62410  27.158  18.275   7.393 -0.1297 -0.0001  0.0378
    1W        W62411  17.658   4.827   0.634 -0.1817 -0.3403 -0.0305
    1W        W62412  17.548  13.557   7.546 -0.3333 -0.1324  0.0666
    1W        W62413  18.169  16.118   1.525  0.2446  0.1056  0.0517
    1W        W62414   0.102  24.296   6.727 -0.0487 -0.1705  0.0771
    1W        W62415   9.372  28.622   2.121 -0.2497 -0.3490  0.3202
    1W        W62416   5.858  11.024   0.591 -0.1269 -0.0070  0.3998
    1W        W62417   8.927  14.109   9.276  0.1053  0.1015 -0.0876
    1W        W62418   1.023  18.156   2.630 -0.1371  0.0766 -0.5098
    1W        W62419   5.892  10.221   0.572 -0.3599 -0.3249  0.3016
    1W        W62420  28.521   1.287   9.111  0.0419  0.0360  0.1720
    1W        W62421   9.250   7.300   8.286 -0.1573  0.1060 -0.0071
    1W        W62422  10.526  21.766   8.327 -0.0775  0.0787  0.0293
    1W        W62423  23.027   0.076   2.105 -0.1926  0.0573 -0.0080
    1W        W62424  23.868   6.707   0.012 -0.3503 -0.1891 -0.0062
    1W        W62425   3.947   4.989   2.536  0.0482  0.0352 -0.1849
    1W        W62426  15.224  15.206   8.088 -0.0276  0.0762  0.0858
    1W        W62427  11.556  25.468   1.627  0.0990 -0.1043  0.2029
    1W        W62428  18.740  15.160   0.509 -0.0639 -0.2783 -0.6621
    1W        W62429   1.714  20.739   8.229 -0.0332  0.1162  0.0610
    1W        W62430  28.501  11.675   0.622 -0.0317 -0.1445 -0.0938
    1W        W62431  21.471  23.579   6.966 -0.1785 -0.3235  0.0658
    1W        W62432  23.952   3.113   7.621 -0.0858  0.0764 -0.1294
    1W        W62433   2.747  27.045   8.454  0.0239  0.0882  0.0038
    1W        W62434  12.992  22.522   0.195 -0.4477  0.4356  0.0423
    1W        W62435  25.409  25.993   7.216  0.3373 -0.1032 -0.3771
    1W        W62436  16.200  13.687   9.329 -0.3926 -0.2376  0.2189
    1W        W62437  20.271   6.620   1.228 -0.1519  0.0369 -0.0850
    1W        W62438  27.867  27.846   0.607  0.0063 -0.0358  0.2874
    1W        W62439  22.446  28.194   8.798  0.1672 -0.3565 -0.1782
    1W        W62440   4.313  26.942   0.605 -0.0626  0.0125  0.0945
    1W        W62441  10.929   9.904   0.513  0.2262  0.3001  0.1244
    1W        W62442  15.297  10.412   8.618  0.0172  0.2963 -0.1230
    1W        W62443  23.314  22.786   1.262  0.1778  0.2105 -0.1499
    1W        W62444   0.078  25.719   1.305 -0.2693 -0.1577 -0.1294
    1W        W62445  14.932  17.493   6.759 -0.0805 -0.1622  0.1906
    1W        W62446   4.051   3.633   2.984  0.0125 -0.2563 -0.3248
    1W        W62447  13.704  14.930   8.901 -0.0595  0.3073 -0.3014
    1W        W62448  15.130   3.632   7.534 -0.3043 -0.1236  0.0073
    1W        W62449  26.477   0.246   8.156 -0.1237  0.1610  0.0863
    1W        W62450  13.528   6.349   3.362  0.2497 -0.0936 -0.2223
    1W        W62451  23.413  21.322   1.536 -0.2902 -0.1596  0.2737
    1W        W62452  27.237  20.284   2.993 -0.0820  0.1099  0.2466
    1W        W62453  23.934   5.706   8.416  0.3359 -0.1646  0.0206
    1W        W62454  21.476  24.959   7.894 -0.3255  0.1020 -0.2328
    1W        W62455   3.592  27.625   9.478  0.0168 -0.0748 -0.0973
    1W        W62456  25.151   5.698   1.343 -0.1419  0.1756 -0.1186
    1W        W62457   2.324   0.322   7.744 -0.1583  0.1121 -0.1209
    1W        W62458  18.990   5.074   1.935 -0.1400  0.1263  0.0338
    1W        W62459   8.701  26.309   8.826 -0.0648 -0.1600  0.2269
    1W        W62460  29.268  27.744   8.827  0.1079  0.1100  0.0690
    1W        W62461  12.866   6.255   3.998  0.0081  0.2051 -0.0383
    1W        W62462  25.617  10.158   8.098 -0.0727 -0.0981 -0.1551
    1W        W62463   6.127  21.331   1.466  0.0497  0.2622 -0.1014
    1W        W62464  26.698  15.196   8.112 -0.1107  0.2839 -0.1232
    1W        W62465   4.280  13.192   1.120  0.0719 -0.0167 -0.1455
    1W        W62466  21.380  27.984   7.804  0.0181 -0.0188  0.1385
    1W        W62467  13.992  20.546   1.474 -0.0047  0.0265  0.1223
    1W        W62468  26.486   4.773   8.711 -0.0952  0.0152 -0.0986
    1W        W62469  20.811  29.514   7.681 -0.3259 -0.4800  0.2373
    1W        W62470  14.225  18.408   9.471 -0.0218  0.0226 -0.1549
    1W        W62471   0.541  24.747   2.729 -0.2325  0.0240  0.2616
    1W        W62472  18.709   3.219   4.501 -0.2159 -0.1441  0.0754
    1W        W62473  25.027  20.909   1.129 -0.1865 -0.1216 -0.0192
    1W        W62474  20.750  16.149   7.813 -0.0272 -0.0303  0.1590
    1W        W62475  26.901  24.304   9.154 -0.3713 -0.1304 -0.0134
    1W        W62476   7.313   2.410   1.617  0.2603  0.0995  0.0879
    1W        W62477  16.481  12.895   9.398 -0.0494 -0.1951  0.0346
    1W        W62478   2.037  21.949   0.045  0.1917  0.0113 -0.2204
    1W        W62479   0.280  10.487   7.929 -0.1781 -0.1812 -0.1034
    1W        W62480   7.107  25.174   6.364 -0.0340  0.0205  0.0945
    1W        W62481  12.879  19.516   8.175  0.0941  0.0573 -0.1005
    1W        W62482   1.547  22.902   2.222  0.0988  0.1302 -0.1472
    1W        W62483  12.165  21.368   9.343  0.4227 -0.3742  0.3020
    1W        W62484   1.240  11.111   1.291  0.0944  0.0511 -0.2957
    1W        W62485  24.139  20.891   0.474 -0.0695 -0.0203  0.1294
    1W        W62486  18.246  26.978   6.859 -0.0046  0.3047  0.2478
    1W        W62487  29.770  29.677   1.830  0.3253 -0.0159 -0.0160
    1W        W62488   6.299  23.236   5.652  0.1260 -0.0928  0.2376
    1W        W62489  21.723   7.750   9.218  0.0532  0.3384 -0.1801
    1W        W62490   6.729  15.288   7.036  0.0784 -0.0745 -0.2505
    1W        W62491  29.219  21.855   2.517  0.0742 -0.1288 -0.0539
    1W        W62492  24.992   5.606   0.468 -0.4520 -0.0336  0.2979
    1W        W62493  14.835  19.240   0.018 -0.0311 -0.0402  0.2987
    1W        W62494  16.304  12.479   0.185 -0.0992 -0.0093  0.2161
    1W        W62495   0.987  15.755   1.962  0.1691 -0.1522 -0.1419
    1W        W62496   5.501  10.412   7.036 -0.0112 -0.0650 -0.1149
    1W        W62497  26.465  17.989   9.526  0.0841  0.0210 -0.2165
    1W        W62498  15.099  10.691   8.966  0.1103 -0.3833  0.0942
    1W        W62499   7.601   7.712   1.301  0.3002  0.1073 -0.3460
    1W        W62500  25.314  26.160   8.148 -0.1327 -0.1023  0.0769
    1W        W62501  14.076  24.925   6.342  0.2330 -0.2733  0.0526
    1W        W62502   1.043  21.623   6.750 -0.1646 -0.2017  0.1966
    1W        W62503  22.415  26.713   1.794  0.0341  0.1422  0.0855
    1W        W62504   3.688  10.231   8.016  0.0337 -0.1545 -0.0330
    1W        W62505  12.542   0.821   2.580 -0.0263 -0.1827 -0.0162
    1W        W62506   3.674   0.147   0.923  0.0726 -0.1301 -0.2756
    1W        W62507  15.437  19.215   6.014  0.1825  0.2182  0.1797
    1W        W62508   7.871  27.976   1.039 -0.1642  0.0398 -0.0191
    1W        W62509  16.448  11.459   8.610 -0.1576 -0.0420 -0.1871
    1W        W62510   0.201  15.358   2.997 -0.0029 -0.3471 -0.0558
    1W        W62511  20.720  14.928   9.212 -0.1451  0.0956 -0.2185
    1W        W62512   3.387  24.463   1.687  0.0017  0.2691 -0.1453
    1W        W62513   6.230  24.825   5.994 -0.2440 -0.1660 -0.1062
    1W        W62514   5.762   3.842   2.198 -0.1076 -0.1816  0.1446
    1W        W62515  20.240  10.842   8.254 -0.0373  0.1858 -0.1614
    1W        W62516  28.689  12.539   8.621 -0.0566 -0.0574 -0.2241
    1W        W62517  28.181  18.063   9.053  0.0145  0.0406  0.2080
    1W        W62518   9.285   3.549   7.625 -0.3473 -0.1794 -0.4174
    1W        W62519   6.106  27.101   0.636  0.1533  0.1234  0.4332
    1W        W62520  21.137  20.218   1.433  0.1018 -0.1916 -0.2011
    1W        W62521   3.741  15.912   9.392 -0.0695  0.0189 -0.1360
    1W        W62522  20.006   0.837   3.690  0.1458 -0.1923 -0.1091
    1W        W62523  27.392   8.819   1.525  0.2360 -0.1361  0.1883
    1W        W62524  11.932   3.547   8.501 -0.0793  0.1734 -0.1509
    1W        W62525   6.391  22.483   2.505 -0.4500  0.1763 -0.2382
    1W        W62526  28.113  20.424   8.745  0.0702  0.0113 -0.0200
    1W        W62527  16.858  28.779   2.672  0.0510 -0.0070 -0.0491
    1W        W62528  22.747  17.724   1.524  0.1340 -0.0774  0.3192
    1W        W62529   9.348  22.304   6.373  0.0294 -0.1297 -0.0657
    1W        W62530  23.707  23.561   8.436 -0.0907 -0.1943  0.1121
    1W        W62531  10.900  11.274   9.094  0.0680 -0.1062  0.1166
    1W        W62532  16.582   0.289   3.275 -0.1894  0.1067 -0.1326
    1W        W62533  21.135  16.700   6.881 -0.0716  0.2067  0.0746
    1W        W62534   0.809   0.722   1.022  0.2969  0.0225  0.0645
    1W        W62535  12.179  21.345   0.843 -0.0225  0.1108 -0.2467
    1W        W62536   4.303   7.729   6.405  0.0300 -0.2881  0.1843
    1W        W62537   6.044  15.928   7.608  0.2713  0.1344  0.0595
    1W        W62538  21.872  11.598   7.591  0.2895  0.2048  0.0931
    1W        W62539  25.928  23.741   6.894  0.1459  0.0840 -0.1146
    1W        W62540  25.896   2.753   1.144  0.0023  0.2426 -0.1059
    1W        W62541  15.307  23.655   0.415 -0.2778  0.1121  0.0574
    1W        W62542  21.602   3.828   8.552  0.0639  0.3214 -0.0031
    1W        W62543  23.462   2.722   0.872 -0.0990 -0.1855  0.0794
    1W        W62544  15.533   8.789   9.331 -0.0845  0.2775 -0.0139
    1W        W62545   2.234  13.762   8.864  0.0838  0.1131  0.1967
    1W        W62546   7.511  29.016   7.720 -0.0076 -0.0329  0.0865
    1W        W62547  21.723  11.174   7.400 -0.4006 -0.0178  0.1747
    1W        W62548   1.019  17.936   0.682  0.3128 -0.2046  0.0011
    1W        W62549  13.420  11.892   8.114  0.1525  0.0856 -0.1621
    1W        W62550  25.801   7.044   0.189 -0.0579  0.1781  0.1482
    1W        W62551   3.671  16.033   3.765 -0.2817 -0.0505  0.1255
    1W        W62552   3.929  13.794   6.502  0.1672  0.2035 -0.0193
    1W        W62553   4.055   3.870   0.686  0.2830 -0.1592 -0.3777
    1W        W62554   7.154  29.614   6.882 -0.1788  0.0133  0.2104
    1W        W62555   0.491   0.436   7.027 -0.2817 -0.1001 -0.2484
    1W        W62556  13.248   9.345   2.655 -0.1617 -0.0937 -0.2518
    1W        W62557   5.894   5.023   0.637 -0.1149 -0.3597  0.0089
    1W        W62558  22.563  17.831   7.679 -0.2370 -0.1747  0.3144
    1W        W62559  24.399  21.920   0.398  0.1702  0.3778 -0.0404
    1W        W62560  21.659  23.207   8.150 -0.2323  0.1071 -0.2493
    1W        W62561  14.708  16.702   7.480 -0.0795  0.0588 -0.0789
    1W        W62562  29.688  24.557   7.843 -0.1012 -0.3166 -0.0084
    1W        W62563  27.869  15.490   0.395  0.0279 -0.0169  0.0004
    1W        W62564   6.752  19.113   7.515 -0.6205 -0.1824  0.1427
    1W        W62565  26.223   7.432   0.222 -0.1186  0.2452 -0.0583
    1W        W62566  12.082  17.742   8.634 -0.2492 -0.1669  0.1266
    1W        W62567   9.947   1.007   2.021 -0.1162  0.3384 -0.1843
    1W        W62568  17.090  19.589   1.551  0.0278  0.2006 -0.1028
    1W        W62569  18.799   5.545   9.504  0.0446  0.1796 -0.1550
    1W        W62570   3.790   4.089   6.790 -0.1932  0.0133 -0.3632
    1W        W62571  27.108  20.684   6.675 -0.0855  0.0648  0.1269
    1W        W62572  16.353   5.819   0.384 -0.1238 -0.3008  0.2021
    1W        W62573  22.939  16.966   8.565 -0.3262  0.0645  0.2021
    1W        W62574  13.039  23.083   0.146  0.1395 -0.1372  0.0502
    1W        W62575  18.559  22.217   0.830  0.3337  0.1115 -0.0819
    1W        W62576  27.498  22.227   0.846 -0.0908 -0.0089 -0.1227
    1W        W62577  18.861  12.406   2.236  0.3409 -0.0904 -0.1535
    1W        W62578  20.812   0.979   8.433  0.3119  0.1134  0.0927
    1W        W62579  11.860  16.113   0.039 -0.1157  0.0654 -0.1063
    1W        W62580  13.046  14.230   2.877 -0.1656  0.3516  0.0252
    1W        W62581  15.908   2.177   3.598 -0.1397  0.0532 -0.1377
    1W        W62582  25.094  11.766   2.127 -0.0205 -0.2349 -0.0557
    1W        W62583  22.450   8.960   8.100 -0.3549  0.0656 -0.1127
    1W        W62584  24.075  20.405   6.340 -0.2472  0.0736 -0.2640
    1W        W62585  24.357   4.211   8.513  0.0066 -0.0824  0.2067
    1W        W62586   9.756   5.941   8.971  0.1401 -0.1121  0.2107
    1W        W62587  10.608  19.940   1.716  0.1022 -0.1950  0.0043
    1W        W62588  21.853  26.392   8.097 -0.1176  0.0242 -0.1631
    1W        W62589  20.026  14.383   8.529 -0.0359  0.2342  0.0285
    1W        W62590  28.477  10.073   0.543  0.0825 -0.0588 -0.1020
    1W        W62591  25.252   7.063   8.112  0.3226 -0.3634  0.2119
    1W        W62592   1.633  13.598   0.410 -0.3332  0.1826 -0.2816
    1W        W62593  27.183   3.084   7.892 -0.2290  0.0975 -0.0237
    1W        W62594  15.145   6.892   1.387  0.2505  0.1680  0.0541
    1W        W62595   0.711   2.849   9.348 -0.1850 -0.1475 -0.0547
    1W        W62596   8.379  13.979   1.398  0.2910  0.1552  0.2142
    1W        W62597  25.631   4.422   2.461  0.3346  0.1349  0.1432
    1W        W62598   2.888   6.339   1.245 -0.0754  0.0010 -0.1026
    1W        W62599  16.080   3.723   2.878 -0.2447 -0.2073  0.2206
    1W        W62600  13.435   5.235   0.145  0.2008  0.2015 -0.0138
    1W        W62601  16.008  15.614   8.963 -0.3158  0.1802  0.0888
    1W        W62602  27.096   3.246   7.342  0.4174  0.0410 -0.0944
    1W        W62603  28.556  12.902   1.167 -0.0109  0.2430 -0.0781
    1W        W62604   1.076  12.983   7.907 -0.1060  0.1881 -0.4271
    1W        W62605  20.687   7.672   2.537  0.0630  0.0721 -0.0228
    1W        W62606  26.106  14.538   8.424  0.1982  0.2036 -0.0621
    1W        W62607  12.330  13.240   7.168 -0.1458  0.2814  0.1184
    1W        W62608   0.336   5.393   2.026 -0.2815  0.0116 -0.0487
    1W        W62609  29.386   4.706   9.052 -0.0073  0.2998  0.1462
    1W        W62610   5.946  14.377   6.603  0.3202 -0.1587  0.0639
    1W        W62611  28.618  24.690   1.701 -0.2237 -0.0383 -0.1347
    1W        W62612  28.328  14.605   0.297  0.1681 -0.2808 -0.2531
    1W        W62613  29.833  13.580   0.958  0.0010 -0.1294  0.2718
    1W        W62614   8.596  29.528   1.839  0.1264 -0.2347 -0.1071
    1W        W62615   6.851   1.238   1.581  0.0540  0.0313  0.2662
    1W        W62616  16.994  21.204   1.174 -0.2248 -0.0261  0.0017
    1W        W62617  11.264  24.607   2.118 -0.0402 -0.0669 -0.3110
    1W        W62618   3.741  21.226   2.354 -0.0563 -0.1414  0.2364
    1W        W62619  22.393  23.933   1.883 -0.1146  0.0196  0.2515
    1W        W62620  25.250  25.128   2.228 -0.0672  0.2232  0.2521
    1W        W62621  26.330  27.221   0.561  0.1715  0.2462 -0.3626
    1W        W62622  12.092  13.456   2.780 -0.0685  0.0782 -0.0321
    1W        W62623  11.531   7.328   0.181  0.2909 -0.2276 -0.1000
    1W        W62624  28.552  22.200   6.831 -0.2924 -0.0477 -0.0309
    1W        W62625  21.428   4.396   3.317  0.0093  0.1213 -0.0446
    1W        W62626  17.078  21.157   7.838 -0.0180 -0.3740  0.2018
    1W        W62627  16.061  17.883   9.509 -0.2332 -0.2236  0.0836
    1W        W62628   9.609   3.003   7.428 -0.0327 -0.2690 -0.3229
    1W        W62629  23.273  12.324   8.247  0.1649  0.2368  0.0459
    1W        W62630  24.030  13.471   9.390  0.0191  0.0879  0.0064
    1W        W62631   4.384  17.122   0.775 -0.1171 -0.1081  0.1891
    1W        W62632  14.859   4.107   1.445 -0.1239  0.2400  0.1367
    1W        W62633   0.879  27.956   8.317  0.2095  0.3031 -0.0503
    1W        W62634  10.112   0.262   8.502 -0.0119 -0.1376 -0.0378
    1W        W62635   7.458  18.648   0.614  0.0688  0.0851  0.0251
    1W        W62636   3.014  14.436   8.491  0.1975 -0.2195  0.0396
    1W        W62637   5.853  15.914   8.910 -0.1704 -0.0747 -0.0404
    1W        W62638  10.300  15.801   6.151  0.3958  0.1538  0.0974
    1W        W62639   8.436  23.873   1.199 -0.0981 -0.0321 -0.1774
    1W        W62640   0.688   6.234   8.866  0.1076  0.1753 -0.1154
    1W        W62641  23.766  21.624   9.435  0.1342  0.2106  0.2539
    1W        W62642   3.904  23.178   7.323  0.0817  0.2455 -0.0544
    1W        W62643  27.122  20.207   6.803 -0.0134 -0.0738 -0.2369
    1W        W62644  15.591  26.772   1.608 -0.0946  0.1919 -0.1196
    1W        W62645  20.866  18.710   9.468 -0.1723 -0.1006  0.0791
    1W        W62646  10.220   0.519   2.916 -0.1399 -0.0931  0.2967
    1W        W62647  11.596  10.698   2.431 -0.0023 -0.0576  0.3943
    1W        W62648   7.553  23.581   1.581  0.3673 -0.1739  0.0550
    1W        W62649  21.230  24.748   7.423  0.1435 -0.0159 -0.0853
    1W        W62650  16.587  24.223   8.658  0.3725  0.1089 -0.0273
    1W        W62651   2.936  28.291   0.623  0.4221  0.0008 -0.2624
    1W        W62652   9.558   7.011   8.639  0.1728 -0.0263  0.6986
    1W        W62653  21.319  19.342   1.562 -0.1246 -0.2840  0.0349
    1W        W62654  26.334  25.502   8.228  0.0664  0.0756 -0.1993
    1W        W62655  28.504  17.422   2.767 -0.2841  0.3061 -0.0978
    1W        W62656  25.653   9.191   8.924  0.2015 -0.3325  0.0582
    1W        W62657  23.975  22.515   9.258  0.2673 -0.0461 -0.2364
    1W        W62658   5.372   5.120   3.401 -0.0981  0.3597  0.1769
    1W        W62659   5.712  25.743   0.518  0.2234  0.0606  0.0023
    1W        W62660  15.359  26.578   7.818  0.0606  0.1997 -0.3507
    1W        W62661  12.595   9.267   0.686 -0.0166  0.2532 -0.0961
    1W        W62662   1.437  26.962   8.838 -0.0400  0.0236 -0.0577
    1W        W62663  12.360   4.694   4.402 -0.0460  0.0818 -0.2124
    1W        W62664  17.214  14.545   7.651  0.0577  0.0860  0.0061
    1W        W62665  20.827   8.453   1.522 -0.0911 -0.0848 -0.2698
    1W        W62666  10.222  22.561   1.355 -0.3338  0.0949 -0.2583
    1W        W62667   4.027   8.353   7.713  0.0893  0.1587 -0.2371
    1W        W62668   1.875   0.041   8.833  0.0554  0.4115 -0.0348
    1W        W62669  26.325  27.695   8.794  0.1263 -0.0820  0.5554
    1W        W62670   2.012  10.302   1.606  0.1253  0.2273 -0.1549
    1W        W62671  26.055   4.403   2.232  0.0973 -0.0851 -0.0059
    1W        W62672  18.075  24.058   8.560 -0.2184 -0.1267  0.2414
    1W        W62673  19.000  22.936   2.075  0.1008 -0.0647  0.1032
    1W        W62674  10.413  13.829   8.145  0.1940  0.3295 -0.0860
    1W        W62675  17.608   2.083   8.698  0.0200 -0.0573 -0.0162
    1W        W62676   9.347  11.416   2.798  0.4458 -0.0098 -0.1205
    1W        W62677   2.984  13.767   1.424 -0.0596 -0.2047 -0.0334
    1W        W62678  28.420  18.709   1.550 -0.1216 -0.0965  0.0713
    1W        W62679  11.684  16.174   8.084  0.1160  0.4877  0.1827
    1W        W62680  13.700  28.434   8.139  0.0398  0.0953  0.4071
    1W        W62681   6.888  13.446   2.630  0.0100 -0.0487  0.1642
    1W        W62682   5.891   1.198   8.412 -0.1594  0.2657  0.0930
    1W        W62683  28.588  18.871   7.551 -0.0302  0.2821  0.0748
    1W        W62684  27.502  16.432   3.362 -0.2343 -0.1248  0.1159
    1W        W62685  15.611  25.609   7.245 -0.0226  0.0840 -0.1726
    1W        W62686  19.791  27.402   7.198 -0.0180 -0.0358 -0.0681
    1W        W62687  25.161  20.082   0.429  0.1052 -0.2315  0.0817
    1W        W62688   2.473  27.082   7.288 -0.0560  0.2045  0.0086
    1W        W62689  13.013  21.065   7.181 -0.3150 -0.2335 -0.0634
    1W        W62690  20.185  20.991   0.015  0.1810  0.2519  0.3295
    1W        W62691  28.416  22.257   7.794  0.2562  0.2018 -0.3555
    1W        W62692   5.895  13.778   8.210 -0.0980 -0.0766 -0.1995
    1W        W62693  28.007  16.096   7.171  0.0719  0.0490 -0.1161
    1W        W62694   9.870   0.465   1.955 -0.1071  0.1833  0.1672
    1W        W62695  22.557  26.247   3.050 -0.2700  0.1888  0.0674
    1W        W62696  18.848  20.746   1.165  0.2630  0.3413  0.3992
    1W        W62697  17.015  11.169   8.988  0.2974 -0.3520 -0.2712
    1W        W62698  25.687  23.040   3.056 -0.1090  0.2531 -0.1160
    1W        W62699   1.786  17.767   2.295 -0.1663 -0.0495  0.3961
    1W        W62700  11.796  27.830   0.539  0.0037  0.0579  0.0328
    1W        W62701  16.286  17.051   1.616 -0.1370 -0.1739  0.2020
    1W        W62702  10.881  10.028   2.591  0.0101  0.1522  0.0310
    1W        W62703  14.146   9.573   6.974  0.1859  0.1817 -0.0202
    1W        W62704   3.250  20.964   8.167 -0.0127  0.1508 -0.1496
    1W        W62705   4.741   7.780   0.616  0.2188  0.3199  0.1744
    1W        W62706  22.587  18.137   8.064  0.1846  0.2638  0.0305
    1W        W62707  12.067   7.762   1.928  0.0426 -0.1403  0.0603
    1W        W62708  29.415  23.011   7.240  0.0439  0.1714 -0.1707
    1W        W62709   8.148   2.602   1.702  0.1175 -0.1391  0.0631
    1W        W62710   6.705  18.997   9.494 -0.3476  0.0598 -0.0467
    1W        W62711   7.914  18.697   2.566  0.1534 -0.0138 -0.0612
    1W        W62712  16.730  20.173   1.229 -0.0077 -0.0881  0.0018
    1W        W62713  22.192   1.816   9.172 -0.0228  0.0848  0.1634
    1W        W62714  25.150  18.092   6.330 -0.0975 -0.0535  0.0759
    1W        W62715   7.379  12.533   8.127 -0.1365 -0.1745  0.0832
    1W        W62716  21.505  10.165   2.493 -0.1402 -0.0554  0.0208
    1W        W62717   2.386   4.001   1.256  0.1864  0.0831  0.0810
    1W        W62718  11.606  15.609   7.944  0.0017  0.3081 -0.2664
    1W        W62719  17.820  26.149   2.114  0.3126  0.2202  0.1314
    1W        W62720  19.046   2.013   0.801 -0.0841  0.3309 -0.1472
    1W        W62721   8.500  26.712   8.117  0.2681  0.5400  0.2518
    1W        W62722  18.114   9.807   1.067  0.1674  0.0531  0.2738
    1W        W62723   0.174   5.873   0.495 -0.1002  0.0772  0.3426
    1W        W62724   4.974  20.611   7.230  0.1756 -0.2390 -0.0480
    1W        W62725  28.917  16.939   8.434  0.3999 -0.0644 -0.2192
    1W        W62726   5.108  21.394   2.396 -0.3014 -0.2054 -0.0329
    1W        W62727   8.700  29.701   8.804  0.0313  0.3402  0.2575
    1W        W62728   4.164  19.722   2.923  0.0041 -0.0662  0.1532
    1W        W62729   5.523  19.423   1.179 -0.0376  0.2946 -0.2510
    1W        W62730  18.176   3.404   3.713 -0.0135  0.2694 -0.0689
    1W        W62731  24.257  13.816   0.254 -0.1978  0.2031  0.1701
    1W        W62732   5.804  19.583   8.829  0.3869 -0.1030 -0.2293
    1W        W62733  18.230  28.400   8.037 -0.0311  0.1812  0.1361
    1W        W62734  29.208  25.045   0.835  0.1390 -0.1948  0.1552
    1W        W62735  13.711  26.247   1.662 -0.2142  0.2506  0.2104
    1W        W62736   6.103  18.202   8.871 -0.0267  0.1406  0.0407
    1W        W62737  13.985  19.838   6.263  0.1035  0.2185  0.0487
    1W        W62738   8.982   8.410   7.884 -0.0339 -0.2697 -0.0244
    1W        W62739  18.741  16.237   1.583 -0.0933 -0.0221 -0.0055
    1W        W62740  17.589   6.898   8.137  0.1559  0.2041  0.1513
    1W        W62741   7.348   4.655   1.186  0.1604 -0.0233 -0.0820
    1W        W62742  26.570  17.172   0.418 -0.1148 -0.1820  0.1406
    1W        W62743   0.488  22.441   8.300  0.2524  0.1669  0.2410
    1W        W62744   8.515  12.391   0.649  0.0286 -0.2268 -0.0766
    1W        W62745   5.422  19.988   0.328  0.1300 -0.2687  0.0426
    1W        W62746  15.855   3.308   3.109 -0.1881  0.0177 -0.2863
    1W        W62747  19.287  10.565   1.654 -0.1058  0.0014  0.1020
    1W        W62748   9.678   9.933   9.313  0.0346 -0.0444 -0.1756
    1W        W62749  21.089  15.924   8.347 -0.1238 -0.2959 -0.0108
    1W        W62750  25.105  16.879   1.041 -0.0034  0.0938  0.0522
    1W        W62751  21.033   5.797   0.308 -0.1118 -0.0751 -0.1285
    1W        W62752   2.398   1.841   2.190 -0.0224 -0.2375  0.1148
    1W        W62753   5.480  19.494   8.063 -0.0500  0.0502  0.0713
    1W        W62754   7.727  13.581   0.217 -0.0548  0.0268 -0.3195
    1W        W62755  19.444  20.171   6.814  0.1248  0.4060 -0.1831
    1W        W62756   8.703  16.833   8.445  0.0720 -0.1259 -0.0686
    1W        W62757  11.188  16.372   7.558  0.2827 -0.0137 -0.0242
    1W        W62758   1.785   3.041   2.102 -0.1761 -0.3992  0.3032
    1W        W62759  14.088  17.976   9.197 -0.0241  0.2211  0.3462
    1W        W62760  27.290  17.260   2.896 -0.2573  0.2187 -0.1160
    1W        W62761  17.796   6.369   8.661  0.2416  0.0022 -0.1736
    1W        W62762   0.461   5.119   0.232 -0.0381  0.1629 -0.1864
    1W        W62763  27.384  24.687   9.040 -0.1745  0.1881 -0.2800
    1W        W62764  26.940  11.947   9.240  0.0697 -0.2398 -0.0002
    1W        W62765  27.755  23.482   8.242 -0.1471  0.2547  0.3628
    1W        W62766  21.081   4.219   2.321 -0.1784 -0.1471 -0.0687
    1W        W62767  27.767  19.441   5.753 -0.1798 -0.2156  0.0705
    1W        W62768   3.372  19.320   8.507 -0.1519 -0.0584  0.2887
    1W        W62769  24.998  22.474   6.566 -0.0939 -0.3316  0.0521
    1W        W62770  22.216  26.039   7.519  0.0150  0.2031 -0.2327
    1W        W62771  20.974  14.537   0.763  0.0352  0.0246 -0.0992
    1W        W62772  22.929  10.039   8.781 -0.2792 -0.2418 -0.0743
    1W        W62773  12.144   0.176   2.405 -0.1409  0.0129 -0.1823
    1W        W62774   0.589  22.852   8.589 -0.3012 -0.1305  0.3511
    1W        W62775  15.060  15.475   7.549 -0.3052 -0.2933  0.1270
    1W        W62776  22.245   6.773   2.134  0.2829  0.0442 -0.0263
    1W        W62777  21.795  20.902   8.339  0.5350  0.2869 -0.2476
    1W        W62778  17.071  22.236   8.751  0.1488  0.1933  0.0805
    1W        W62779   6.755  22.125   6.289 -0.0128 -0.2809  0.2538
    1W        W62780  26.260   5.471   9.415 -0.0556  0.1199 -0.3566
    1W        W62781  18.036   2.815   1.419 -0.0221 -0.1707  0.0701
    1W        W62782  22.801  18.528   8.354 -0.0236  0.1700 -0.0190
    1W        W62783  22.315  17.828   7.244 -0.1226 -0.0234  0.0762
    1W        W62784   8.177  12.266   1.044  0.2072 -0.1061 -0.2598
    1W        W62785  20.476  24.754   0.491 -0.0907  0.0254 -0.2308
    1W        W62786  10.339   5.774   8.118  0.2617 -0.1844 -0.2142
    1W        W62787  18.210  21.199   6.872 -0.1516  0.2867  0.1156
    1W        W62788  23.886  26.830   8.946 -0.1763  0.0030  0.1345
    1W        W62789   9.961  24.983   8.848  0.2021  0.0491  0.2762
    1W        W62790  16.126  27.320   1.711  0.1032  0.1843 -0.3908
    1W        W62791  13.973   9.414   2.016 -0.3750  0.2796 -0.0753
    1W        W62792  22.630  28.140   1.826  0.0584 -0.1773 -0.0082
    1W        W62793  13.846   6.899   8.515  0.2087  0.0429  0.2046
    1W        W62794   4.673  20.261   1.962  0.3554 -0.0890  0.0527
    1W        W62795  28.661  15.283   9.270 -0.2577  0.3731  0.1191
    1W        W62796  16.935   9.605   0.365  0.1614 -0.2452  0.0310
    1W        W62797   2.337  16.491   1.677 -0.1000  0.2172 -0.2568
    1W        W62798  19.721  11.542   0.608  0.1558  0.2059  0.3432
    1W        W62799  21.811   8.628   2.594  0.0381  0.1501 -0.0533
    1W        W62800   5.730  11.372   8.373 -0.2963 -0.3679  0.0113
    1W        W62801   7.298   8.110   0.070  0.0142  0.1077  0.3238
    1W        W62802   6.969  17.222   8.295 -0.1827 -0.1021  0.0165
    1W        W62803   3.823  15.055   6.926  0.0552 -0.1386 -0.3981
    1W        W62804  26.190  25.803   7.314  0.1064  0.1647 -0.1501
    1W        W62805  16.715   0.875   0.132  0.1587 -0.0098  0.1014
    1W        W62806   3.290  14.152   2.025  0.0946 -0.1158  0.0048
    1W        W62807  21.829  14.765   7.181 -0.2919  0.0765  0.2051
    1W        W62808  18.223  11.191   0.728  0.1239  0.0688  0.4541
    1W        W62809  22.426  26.683   6.258 -0.1437  0.0843  0.4079
    1W        W62810  23.639  12.863   6.975 -0.1873 -0.2105  0.0673
    1W        W62811   7.038   8.596   8.180  0.0048  0.0241  0.0512
    1W        W62812  22.302  16.011   8.151 -0.3572 -0.1821  0.0631
    1W        W62813   4.718  25.688   0.012 -0.0348 -0.1898 -0.1770
    1W        W62814  23.309  14.779   9.434  0.2777 -0.1507 -0.0385
    1W        W62815  27.220   6.040   2.445  0.2331  0.3462  0.1024
    1W        W62816  16.755  19.980   8.032  0.1265  0.1298 -0.3929
    1W        W62817  10.353   5.095   0.647  0.1855 -0.1970 -0.0591
    1W        W62818   4.009   5.018   7.890 -0.0804 -0.1101  0.2333
    1W        W62819   8.020   6.904   8.798 -0.2403  0.2880  0.1582
    1W        W62820  26.570   6.894   1.612  0.2523  0.0376 -0.0770
    1W        W62821  16.710  16.206   0.200  0.2192 -0.2060  0.0631
    1W        W62822   6.725  27.840   1.130  0.1175 -0.2604 -0.2157
    1W        W62823  19.580  20.164   1.041 -0.1880 -0.0989 -0.2831
    1W        W62824  28.133  19.107   1.428  0.1827  0.1916 -0.0130
    1W        W62825  13.580  18.300   5.897  0.2548 -0.0593  0.2359
    1W        W62826  12.481   7.639   7.909  0.0286 -0.1421 -0.2347
    1W        W62827   7.962  27.460   8.218 -0.0303 -0.1457 -0.0249
    1W        W62828   1.649  24.729   0.761  0.0297 -0.0767 -0.2481
    1W        W62829  25.420  16.881   7.173 -0.1811  0.2822 -0.1201
    1W        W62830   7.445  26.814   1.938 -0.1691  0.0679 -0.1735
    1W        W62831   0.653  25.242   7.245 -0.3817  0.2511  0.1086
    1W        W62832  24.050   2.441   3.112  0.0934  0.0289 -0.0504
    1W        W62833  18.378  13.027   8.201 -0.2561  0.0249  0.2058
    1W        W62834   3.453   5.062   1.406 -0.1480 -0.2242  0.0757
    1W        W62835   8.000   5.763   7.228  0.0859 -0.1448  0.1003
    1W        W62836   9.488  11.973   8.650  0.2003  0.6166 -0.0032
    1W        W62837  16.381  11.226   0.985  0.0153 -0.0963 -0.0373
    1W        W62838   5.533   5.571   2.080  0.0731  0.0229  0.0088
    1W        W62839   6.288  17.190   9.055 -0.3530  0.2668  0.1743
    1W        W62840  20.582  23.238   0.782 -0.1906 -0.2997  0.0170
    1W        W62841  21.340   3.004   0.222 -0.4197 -0.2015  0.0073
    1W        W62842  24.599  20.959   3.094  0.0178  0.3001  0.0005
    1W        W62843   6.111  11.882   9.383  0.3430  0.3586 -0.1612
    1W        W62844   2.262  17.601   7.545 -0.0454  0.1251 -0.1419
    1W        W62845  23.265   2.985   3.909  0.0553 -0.0881  0.1216
    1W        W62846  29.844  17.112   1.230  0.1791  0.1653 -0.1485
    1W        W62847  23.449   7.248   3.615 -0.2673  0.0939 -0.5428
    1W        W62848  25.899  28.210   7.320 -0.1106  0.1383 -0.1601
    1W        W62849   7.906  11.370   2.553  0.1114 -0.3286  0.0077
    1W        W62850  16.359  24.006   0.218 -0.2163 -0.0589  0.1072
    1W        W62851   5.913  12.997   0.540 -0.0554 -0.0746  0.2478
    1W        W62852  12.127  29.730   1.191  0.3640  0.1257 -0.2611
    1W        W62853   2.567  20.353   9.473 -0.0103  0.1862 -0.2817
    1W        W62854  24.182  24.236   7.679 -0.1390  0.0004  0.0195
    1W        W62855  24.827   9.541   0.218 -0.2339 -0.1701  0.0225
    1W        W62856  17.620   4.417   0.355  0.0425  0.0352  0.3032
    1W        W62857  11.964   2.844   8.053  0.4553  0.1012 -0.2297
    1W        W62858  22.278  26.475   8.362  0.1905 -0.1008 -0.2674
    1W        W62859   3.972   0.652   2.401  0.3154 -0.2081 -0.3337
    1W        W62860  15.843  18.154   6.862 -0.2187 -0.0206 -0.0594
    1W        W62861  29.712   4.150   0.178 -0.1061 -0.0564  0.0991
    1W        W62862   4.204  26.550   8.686 -0.3403  0.0799  0.2443
    1W        W62863   2.693  10.855   6.266  0.1237  0.1591 -0.0297
    1W        W62864   4.158  11.452   5.722 -0.2121 -0.0685  0.0914
    1W        W62865  29.652   0.255   7.516 -0.3545  0.3569  0.3616
    1W        W62866   0.825  17.296   2.164 -0.2256 -0.0757 -0.0278
    1W        W62867   1.397   5.180   9.154  0.0476  0.1165  0.0762
    1W        W62868  24.121  10.416   8.717 -0.1713 -0.1964  0.1031
    1W        W62869  21.477   5.698   8.664  0.1573  0.2081 -0.2379
    1W        W62870  16.767  23.966   0.543 -0.0570 -0.0873  0.0584
    1W        W62871  20.487  10.826   7.328  0.4498 -0.0189 -0.2157
    1W        W62872  13.848  13.374   0.965 -0.0065 -0.2515  0.1070
    1W        W62873  28.991  11.145   0.954 -0.1455  0.1292 -0.2841
    1W        W62874   6.440  16.707   0.853 -0.3085 -0.1715 -0.4226
    1W        W62875  27.036  27.599   0.137  0.0066  0.2136 -0.2968
    1W        W62876  26.150  25.805   1.274  0.3117  0.0958 -0.1934
    1W        W62877   9.500  16.438   6.380  0.3314  0.1254  0.1189
    1W        W62878   8.992  10.509   7.537 -0.0176 -0.1138  0.1180
    1W        W62879  19.133  15.486   8.599 -0.1332 -0.0201  0.0386
    1W        W62880   5.762  14.274   6.125  0.1610 -0.0021 -0.1270
    1W        W62881  16.971   0.749   4.228 -0.0801 -0.2443 -0.1334
    1W        W62882  26.291  15.128   1.408  0.2050  0.1688  0.2382
    1W        W62883  28.321   4.516   0.235 -0.2389  0.1504  0.2040
    1W        W62884   6.116  21.492   6.270  0.0119 -0.1463 -0.2070
    1W        W62885  20.918  25.758   0.425  0.2835 -0.2246  0.3613
    1W        W62886   3.414   3.535   0.829 -0.1709 -0.1374 -0.0960
    1W        W62887  28.574   0.017   8.794  0.1098  0.0202 -0.0696
    1W        W62888  24.947  10.931   2.464  0.0132 -0.0166 -0.0964
    1W        W62889   0.600  11.163   9.239 -0.1695  0.1888 -0.1778
    1W        W62890  14.110  16.668   9.390 -0.0087 -0.1777  0.0399
    1W        W62891  29.777   8.487   2.066  0.1824  0.0213 -0.1017
    1W        W62892  11.298   0.416   7.576 -0.3693  0.0128  0.4224
    1W        W62893   0.292   6.699   8.844  0.0701 -0.0533 -0.0736
    1W        W62894   0.101   2.078   6.440  0.1275 -0.0197  0.1365
    1W        W62895  29.813   3.427   7.994  0.0903  0.0257  0.0972
    1W        W62896  13.758  26.553   0.379 -0.0507  0.3937 -0.0531
    1W        W62897  17.000  24.746   6.528  0.2367 -0.0537  0.0889
    1W        W62898  28.574   8.933   2.229  0.0767 -0.0636 -0.2111
    1W        W62899  14.909  24.833   0.749  0.3429 -0.2583  0.1220
    1W        W62900  15.695  22.816   9.463 -0.0891 -0.0418  0.0468
    1W        W62901  26.236  10.565   9.136 -0.0639  0.2159  0.3035
    1W        W62902   2.397   0.144   9.198 -0.0905 -0.1010 -0.2878
    1W        W62903  16.907   0.942   3.756  0.1853  0.2941  0.3709
    1W        W62904  21.191  17.949   9.076  0.2985 -0.1388 -0.0290
    1W        W62905  19.988  24.421   1.976  0.3051  0.6313  0.0975
    1W        W62906   4.103  16.915   2.228  0.1491 -0.2457  0.0984
    1W        W62907   0.340   4.188   0.444  0.2192  0.2439 -0.0622
    1W        W62908  29.342  17.039   8.214 -0.0420  0.1723 -0.0513
    1W        W62909  23.870  15.560   9.502  0.2469 -0.3526 -0.1291
    1W        W62910   1.107  21.103   1.318  0.0452  0.0230 -0.0572
    1W        W62911  19.166  16.714   7.785 -0.2121 -0.1953 -0.3038
    1W        W62912  13.266  12.973   6.862 -0.0517 -0.3302 -0.0900
    1W        W62913  22.399  22.115   8.893 -0.1999 -0.0023  0.1556
    1W        W62914  22.946  11.797   7.666  0.0952  0.0988 -0.2902
    1W        W62915  14.579  20.620   7.813 -0.4061 -0.4111  0.0115
    1W        W62916  23.265   9.807   0.746 -0.0817  0.2624  0.3815
    1W        W62917  25.907   5.502   7.927 -0.3011 -0.0345  0.0318
    1W        W62918  11.712  17.805   0.766  0.3973  0.0762 -0.0564
    1W        W62919   8.871  12.932   1.889  0.0519  0.0093 -0.0500
    1W        W62920   4.824  10.589   7.928 -0.2583 -0.2036  0.1609
    1W        W62921   9.692   3.784   3.971  0.0198 -0.2291 -0.0651
    1W        W62922  21.370  29.284   1.990  0.0307  0.0971 -0.3255
    1W        W62923   2.742  18.151   7.888  0.2031  0.1898  0.1387
    1W        W62924   1.133   7.711   6.777  0.0317  0.1508  0.1288
    1W        W62925  13.560   9.887   1.324 -0.0652 -0.0495  0.1923
    1W        W62926   7.125  22.246   7.818 -0.0989 -0.1931  0.2047
    1W        W62927  23.862   9.733   1.201 -0.1096 -0.0043 -0.0510
    1W        W62928   9.121  17.353   9.113 -0.2142 -0.0042 -0.0264
    1W        W62929  14.794  13.356   6.902 -0.2335  0.0309 -0.1225
    1W        W62930  17.870   0.689   9.484 -0.1768  0.0486 -0.1135
    1W        W62931  23.950   6.009   1.343 -0.2357  0.0469 -0.0690
    1W        W62932   8.288  28.152   8.613 -0.0586  0.2162  0.1777
    1W        W62933  27.690  22.351   0.357 -0.2234  0.5281  0.0516
    1W        W62934  22.942  17.578   6.777 -0.0528  0.0534 -0.0574
    1W        W62935  11.751  16.654   2.437  0.0391 -0.5563 -0.0062
    1W        W62936   6.684  20.603   0.666  0.0050 -0.0430 -0.0111
    1W        W62937  24.079  19.320   8.896 -0.2269 -0.3877 -0.0847
    1W        W62938  10.640  18.881   6.993  0.2563  0.1404 -0.1209
    1W        W62939  27.773  22.312   6.232 -0.2469  0.1270 -0.0899
    1W        W62940  15.732  15.283   8.720  0.0202  0.1284 -0.0830
    1W        W62941  28.258   6.140   2.761  0.0883  0.0490  0.0790
    1W        W62942  26.778  26.676   0.555 -0.0587  0.0764 -0.0596
    1W        W62943   9.987  12.154   0.612  0.0612 -0.1440  0.0774
    1W        W62944   4.464  26.811   7.977  0.0466  0.0981  0.0824
    1W        W62945  27.867   7.951   9.226  0.1624 -0.1990 -0.0661
    1W        W62946  26.874  11.224   2.184 -0.1047 -0.0561  0.1189
    1W        W62947  19.699   1.570   0.166 -0.1505 -0.0202 -0.4511
    1W        W62948  23.532  16.728   0.379  0.0011 -0.2031  0.1563
    1W        W62949  24.864   5.184   0.574 -0.3469  0.1027  0.4090
    1W        W62950  21.124   3.804   1.955  0.4434 -0.0265 -0.0824
    1W        W62951   0.926   9.329   9.035  0.1341  0.2577  0.3259
    1W        W62952   4.707   2.897   0.960  0.0456 -0.1847 -0.1012
    1W        W62953  15.483  29.330   2.155 -0.0264 -0.2697  0.1608
    1W        W62954  12.039   2.368   3.045 -0.0917 -0.2331 -0.0921
    1W        W62955  25.119  23.156   7.084  0.3172  0.1090  0.1070
    1W        W62956  21.986  26.630   9.292  0.0324  0.0190  0.1049
    1W        W62957  10.865  10.712   9.033  0.4028  0.2157  0.0818
    1W        W62958  23.121   1.596   2.740  0.0324  0.0204 -0.2461
    1W        W62959  11.685  28.750   0.218  0.2012  0.0616  0.0668
    1W        W62960  11.354  15.947   7.719  0.0149  0.0597 -0.0047
    1W        W62961  19.821   3.599   8.511 -0.0089  0.1442 -0.2316
    1W        W62962   6.199  15.489   8.401 -0.0044 -0.1227 -0.1106
    1W        W62963  17.956  24.834   6.646 -0.3631 -0.2705  0.1755
    1W        W62964  24.549   9.024   8.174 -0.0786 -0.1332 -0.3033
    1W        W62965  29.712  10.313   8.205 -0.0076 -0.4684  0.1123
    1W        W62966  20.278  16.907   6.550 -0.1480  0.1473 -0.1156
    1W        W62967  27.606  14.646   2.480  0.4844  0.0071  0.0649
    1W        W62968  20.781   3.643   0.720  0.1619  0.1591 -0.0539
    1W        W62969  14.486  19.116   8.652 -0.0228  0.1522  0.0292
    1W        W62970  16.660  13.599   1.676  0.4095  0.1534  0.3591
    1W        W62971   4.097  13.610   6.946  0.1974  0.0313 -0.3696
    1W        W62972   5.848   0.663   2.368 -0.1008  0.2492 -0.2213
    1W        W62973   3.480   6.911   2.425 -0.0406  0.1553  0.2414
    1W        W62974  19.279   7.420   0.381 -0.2225  0.0806 -0.2846
    1W        W62975  12.882  22.564   7.364  0.2021 -0.1240 -0.1245
    1W        W62976   0.211  26.441   8.485  0.3150  0.2206 -0.1766
    1W        W62977   7.079   4.361   7.439 -0.0573 -0.0401  0.0050
    1W        W62978   8.063  22.767   8.527 -0.1456 -0.0270 -0.2338
    1W        W62979   0.571  12.391   2.893  0.1774  0.4216 -0.3292
    1W        W62980   9.780  12.995   0.683 -0.0886  0.1187 -0.0641
    1W        W62981  12.630  13.038   0.385  0.3382  0.1585  0.2176
    1W        W62982   7.434  20.516   6.146  0.1871  0.1247  0.1018
    1W        W62983   1.905  10.974   8.904  0.1492  0.2085  0.4517
    1W        W62984   3.121   7.673   0.431 -0.1959  0.0187 -0.1747
    1W        W62985   6.086   6.600   8.289  0.0927  0.0345  0.0368
    1W        W62986  26.153  20.024   0.005  0.2852 -0.1122  0.1188
    1W        W62987   3.676  18.422   3.080  0.1919  0.1188 -0.0535
    1W        W62988   9.663  14.079   0.203 -0.1204 -0.1615 -0.0927
    1W        W62989   0.795  27.389   7.642  0.1632  0.0038 -0.2950
    1W        W62990  24.699  26.967   1.580 -0.0946  0.0773 -0.0271
    1W        W62991  15.087  14.592   8.886  0.1669 -0.2040  0.0686
    1W        W62992  14.531   0.709   8.288 -0.1021 -0.0830 -0.1055
    1W        W62993   5.409   3.566   2.464  0.0252  0.1551 -0.0854
    1W        W62994   7.007  15.778   9.375 -0.0547  0.1257 -0.1094
    1W        W62995  15.226  16.456   7.708  0.3159 -0.0778 -0.2096
    1W        W62996   5.995  22.233   1.850  0.0984 -0.3918  0.0254
    1W        W62997  20.415  10.146   1.133 -0.1711 -0.1146 -0.2300
    1W        W62998   8.827   1.374   1.058 -0.0341 -0.1216 -0.3339
    1W        W62999  14.286  10.068   8.101 -0.1909 -0.2041 -0.0905
    1W        W63000  24.417  16.863   0.284 -0.0862  0.0902  0.0868
    1W        W63001  24.777  19.475   8.065 -0.0661  0.1203  0.0176
    1W        W63002  22.384  10.678   1.799  0.0109  0.1212  0.1700
    1W        W63003  29.582   8.498   9.454  0.2920  0.1635 -0.1609
    1W        W63004  25.166  19.982   9.010  0.1153 -0.0788  0.0471
    1W        W63005  23.568  13.694   8.566  0.0912  0.1227  0.2376
    1W        W63006   8.495   4.866   2.147 -0.0110  0.0853 -0.1855
    1W        W63007  13.600  24.781   6.060  0.2798  0.1611  0.0429
    1W        W63008   9.603   3.948   8.138 -0.0691 -0.1157  0.1405
    1W        W63009  24.258   4.422   1.423 -0.1710  0.4539  0.2299
    1W        W63010  13.887   1.515   2.697  0.0263 -0.1480  0.0610
    1W        W63011  16.458   9.123   8.969 -0.0133 -0.0173  0.1900
    1W        W63012  16.279  23.275   8.217  0.1406  0.0542 -0.1787
    1W        W63013  10.535  22.212   7.618  0.0832 -0.2972 -0.1561
    1W        W63014   9.576  20.826   2.045  0.3408 -0.0905 -0.0636
    1W        W63015  18.516  21.553   0.248 -0.0238 -0.1715 -0.3975
    1W        W63016  26.158  17.829   7.666 -0.0455 -0.0882  0.2011
    1W        W63017  26.395   3.585   2.605 -0.0785  0.0745  0.3293
    1W        W63018   1.304   9.580   6.620  0.0451  0.0517 -0.0825
    1W        W63019  19.860  21.273   0.341 -0.2043  0.1978 -0.1598
    1W        W63020  23.564  25.817   2.490  0.0869 -0.1678 -0.1826
    1W        W63021  10.838  22.117   9.033  0.4900  0.0196  0.0930
    1W        W63022  12.697  11.201   6.970  0.2427 -0.0333 -0.1121
    1W        W63023   8.756   3.729   9.480  0.0700  0.0304  0.3021
    1W        W63024   7.101  21.419   0.992  0.2150  0.0092 -0.1119
    1W        W63025   8.501  11.909   0.924 -0.0720  0.0768  0.3482
    1W        W63026   4.761  15.342   9.458 -0.0121  0.0675 -0.3602
    1W        W63027   3.713  17.780   2.473 -0.3573 -0.0156  0.0478
    1W        W63028  10.152   6.891   8.369 -0.0404 -0.1025 -0.2021
    1W        W63029  17.541  22.062   9.506 -0.0180 -0.1311  0.1100
    1W        W63030  28.525   6.922   1.271 -0.0874  0.0915 -0.2367
    1W        W63031   7.694  22.397   8.498 -0.1061  0.0804  0.0880
    1W        W63032  11.256   5.084   0.087 -0.0356  0.3798 -0.3216
    1W        W63033  24.390   8.243   0.856 -0.0022 -0.0964 -0.0141
    1W        W63034  21.997   2.759   4.157  0.2867  0.3819  0.1077
    1W        W63035  25.382  17.874   0.623  0.0881 -0.1715 -0.0142
    1W        W63036  13.542  10.319   2.941 -0.1517  0.0966  0.0427
    1W        W63037  16.709  25.077   9.164 -0.1509 -0.3194  0.0123
    1W        W63038   9.263  25.188   7.686  0.3778 -0.2161  0.0375
    1W        W63039  28.121  13.053   8.687  0.1451  0.0011  0.0038
    1W        W63040   4.914  16.614   8.155  0.1364 -0.0527 -0.0484
    1W        W63041  17.018  15.984   0.624  0.2594 -0.1553 -0.0649
    1W        W63042   0.510   0.537   8.616 -0.0130 -0.0072  0.3415
    1W        W63043   1.970  10.294   8.453  0.1659  0.0071  0.0040
    1W        W63044  12.163   6.729   2.869  0.0350  0.0109 -0.4043
    1W        W63045  27.734  25.650   0.559  0.0602 -0.0146 -0.0971
    1W        W63046  16.538   2.168   1.715  0.2011 -0.1491 -0.1811
    1W        W63047  27.449  23.259   7.920 -0.0524  0.2810  0.2151
    1W        W63048  10.078   9.676   9.525  0.0061  0.2122 -0.0143
    1W        W63049  29.365   9.577   8.579 -0.1336  0.1699 -0.0082
    1W        W63050   9.942   4.047   9.264 -0.3016 -0.1433  0.0217
    1W        W63051   8.374   3.513   0.695  0.1819 -0.0559 -0.2684
    1W        W63052  19.618  28.936   9.022  0.0884  0.0028  0.0275
    1W        W63053  23.066   0.646   1.308  0.1349 -0.0690 -0.0354
    1W        W63054   9.524  17.512   3.174  0.3005 -0.2907  0.0378
    1W        W63055  21.648  21.387   0.057  0.2942 -0.0579 -0.0265
    1W        W63056   7.968   4.847   8.928  0.1863  0.0107 -0.0177
    1W        W63057  27.873  13.153   2.236 -0.1504 -0.0238 -0.1932
    1W        W63058   6.977  15.471   0.741  0.1262 -0.1012  0.4388
    1W        W63059  11.944   4.741   2.470  0.1587 -0.1864 -0.1324
    1W        W63060  14.527  18.522   8.976  0.4079  0.3234  0.0570
    1W        W63061  11.065  12.358   1.403  0.2073  0.2320 -0.2005
    1W        W63062   2.910  15.811   1.653 -0.0677  0.1937 -0.0587
    1W        W63063  17.636  25.903   2.798 -0.2810  0.1571  0.0145
    1W        W63064  25.060   3.435   8.695  0.1797 -0.5454 -0.0817
    1W        W63065   2.520   5.536   8.990 -0.1003  0.1098 -0.2932
    1W        W63066  24.072  23.584   2.772  0.0155 -0.1075 -0.0801
    1W        W63067  21.162  17.509   8.215 -0.0337  0.1864  0.1554
    1W        W63068  10.362  18.850   1.587 -0.2271  0.0147  0.0743
    1W        W63069  29.604  23.762   8.866  0.1685  0.0611 -0.0138
    1W        W63070  15.732  28.494   6.532 -0.1410  0.3137  0.0390
    1W        W63071   8.495  29.663   7.788 -0.0199  0.1156 -0.1522
    1W        W63072  12.927  18.609   7.501  0.1579  0.1308  0.4298
    1W        W63073   6.200   3.078   6.927  0.0191  0.1722 -0.2985
    1W        W63074   2.048   9.746   2.436  0.2331 -0.1029  0.0543
    1W        W63075  22.767  18.171   7.362 -0.1576 -0.0851  0.0367
    1W        W63076   7.710  17.521   0.629  0.1094  0.2913  0.0003
    1W        W63077   4.160  28.041   0.809  0.1176  0.1452 -0.2114
    1W        W63078   5.487   7.596   9.526  0.0296  0.5787  0.2068
    1W        W63079  17.982  27.485   9.299 -0.1552  0.1831 -0.1507
    1W        W63080  23.309  29.796   2.794 -0.2374  0.1977 -0.2850
    1W        W63081   2.410   4.444   6.724 -0.1506  0.1262  0.0747
    1W        W63082  18.197  15.438   1.868  0.3223 -0.1962  0.2742
    1W        W63083   2.918  21.172   0.251 -0.0924 -0.0110 -0.1051
    1W        W63084  28.677  28.661   7.445  0.1078  0.0419  0.0096
    1W        W63085  16.157  27.218   8.296  0.2461  0.1599  0.0718
    1W        W63086  25.803   2.716   0.042  0.0315 -0.1664  0.0061
    1W        W63087   2.987  16.046   7.235 -0.0742 -0.2045  0.0566
    1W        W63088   2.932  15.486   9.213  0.1675  0.0754 -0.0250
    1W        W63089   7.312  12.764   8.571  0.0926  0.2212  0.1337
    1W        W63090  14.127   7.470   0.822 -0.0379  0.1512 -0.1560
    1W        W63091  18.357   1.130   0.599 -0.0877  0.0862  0.0690
    1W        W63092  19.540  14.690   1.632 -0.1754 -0.1414 -0.0462
    1W        W63093  13.963   4.490   8.264  0.0849 -0.2188 -0.0045
    1W        W63094  24.789  23.381   2.399  0.2019  0.0643  0.1867
    1W        W63095  21.680  10.767   0.444 -0.3581 -0.1744 -0.1326
    1W        W63096   3.434  27.731   6.609  0.1850  0.3928  0.1604
    1W        W63097  13.299  25.434   1.797 -0.1116 -0.1895 -0.0539
    1W        W63098  14.065  10.481   2.649 -0.0139 -0.1708  0.0313
    1W        W63099   1.462  14.997   1.735  0.0398 -0.1719  0.1429
    1W        W63100  12.346  27.596   9.420  0.2796  0.2449 -0.4164
    1W        W63101   2.807  11.202   0.848  0.0393  0.0269  0.0431
    1W        W63102  17.170   4.180   3.868  0.2506 -0.0819  0.1849
    1W        W63103   0.356  28.116   6.211 -0.0320  0.0911  0.0279
    1W        W63104  12.637   3.388   0.469  0.0791 -0.4284 -0.1973
    1W        W63105  22.575  22.208   1.206  0.0362 -0.3513 -0.0368
    1W        W63106   9.089  23.323   7.213  0.1097 -0.0939 -0.0699
    1W        W63107   9.181  26.829   0.068 -0.1876  0.0122 -0.0526
    1W        W63108  24.529   0.983   9.319  0.3445 -0.3768  0.3198
    1W        W63109  11.593  25.346   7.900  0.2271  0.1294  0.1716
    1W        W63110  13.599  18.219   7.486  0.0736  0.0519  0.1472
    1W        W63111  20.031  26.544   1.287  0.0257 -0.0009 -0.0064
    1W        W63112  19.621   6.097   3.681 -0.1461  0.3991  0.0194
    1W        W63113  16.251   3.546   2.195  0.0028  0.0903  0.1081
    1W        W63114   3.091   1.621   6.980  0.1145 -0.1309 -0.0754
    1W        W63115  28.506  14.581   2.270  0.4091  0.4413 -0.0081
    1W        W63116  26.541   3.331   0.324  0.0119 -0.2256 -0.1817
    1W        W63117  19.541   9.875   8.883  0.0364  0.1943 -0.0314
    1W        W63118  13.111  12.904   0.522 -0.2080 -0.2001 -0.0020
    1W        W63119  25.112  27.198   1.273  0.1302 -0.2709 -0.2355
    1W        W63120  10.995   3.225   2.684 -0.0626  0.2085  0.1383
    1W        W63121  27.934   2.792   6.790 -0.2653  0.2022  0.1913
    1W        W63122  17.309  10.564   8.947 -0.2013 -0.0757  0.2265
    1W        W63123   5.914  11.854   0.784 -0.0309  0.1415  0.2329
    1W        W63124  17.102  28.030   0.677 -0.1144  0.1862 -0.0801
    1W        W63125   7.397  29.241   6.589 -0.1370  0.2154  0.3133
    1W        W63126  17.977   8.432   9.522 -0.2103  0.5085 -0.1616
    1W        W63127  29.422   3.858   8.535  0.0311 -0.1650 -0.1216
    1W        W63128  11.827   8.563   2.013 -0.1527 -0.2549 -0.0875
    1W        W63129  15.807   9.747   8.544 -0.1477 -0.3006 -0.0807
    1W        W63130   0.566   6.581   8.032 -0.2087 -0.0279  0.3655
    1W        W63131  13.029  25.976   6.391 -0.0806  0.0350  0.2258
    1W        W63132   5.365  29.238   6.898  0.0156  0.0263  0.1083
    1W        W63133  29.114   1.589   7.445 -0.0614  0.0960  0.4664
    1W        W63134   4.048   5.708   6.942  0.0674  0.3513 -0.0872
    1W        W63135  29.393  22.304   9.267 -0.1854 -0.0327 -0.1020
    1W        W63136   8.319  21.097   8.609  0.0434  0.1516  0.0935
    1W        W63137   3.156   5.914   1.205  0.5043  0.0524  0.0992
    1W        W63138   7.504   1.177   0.624 -0.0616  0.1103 -0.3317
    1W        W63139   5.153   3.082   1.116 -0.2938  0.1523  0.1870
    1W        W63140  27.546  25.560   7.566 -0.0072 -0.0324  0.1424
    1W        W63141  28.457   3.942   8.189  0.2054  0.0600 -0.0728
    1W        W63142  17.735  10.447   7.968 -0.0670  0.1270 -0.1812
    1W        W63143  12.427  29.170   8.225  0.4124  0.1811  0.3085
    1W        W63144  23.114  16.486   0.096 -0.0471  0.0663  0.1102
    1W        W63145  10.868   5.100   9.076 -0.0694  0.0751  0.1630
    1W        W63146  29.698  10.785   8.976  0.0847 -0.2252  0.4292
    1W        W63147   2.850  29.161   6.874  0.0736  0.0859 -0.0098
    1W        W63148  28.143  25.849   0.132 -0.0881 -0.0030 -0.1781
    1W        W63149   3.051   5.136   2.708  0.0794 -0.0740 -0.0234
    1W        W63150   7.688  20.825   2.402 -0.3573 -0.1718 -0.0966
    1W        W63151  25.839  14.236   9.361 -0.2647 -0.0924  0.0676
    1W        W63152   0.318  26.587   0.715 -0.0045 -0.0734 -0.3213
    1W        W63153   7.497  23.128   1.756 -0.1274  0.2509 -0.0823
    1W        W63154  12.533   2.132   2.309  0.1937 -0.1557 -0.2318
    1W        W63155  18.690  17.941   0.237 -0.0889  0.0926  0.0986
    1W        W63156   2.390  26.983   0.488 -0.1487  0.0254 -0.2856
    1W        W63157  24.426  27.018   8.262 -0.0170 -0.1747 -0.0871
    1W        W63158  11.189   9.890   8.030 -0.2164 -0.1261  0.1229
    1W        W63159  16.050   8.107   0.417  0.1216  0.0123 -0.0740
    1W        W63160  22.974  19.267   1.796 -0.2093  0.0906 -0.1590
    1W        W63161   4.868   0.785   7.814  0.1658  0.1383 -0.2537
    1W        W63162  25.512   3.231   7.259  0.3790 -0.3682 -0.0175
    1W        W63163   6.591  15.966   0.090  0.0745 -0.0408  0.0539
    1W        W63164   8.906  15.540   0.341  0.1913  0.0192 -0.1531
    1W        W63165   2.949   5.111   2.192  0.2330 -0.1726  0.4178
    1W        W63166  16.882  21.508   5.962  0.1084  0.0182  0.0342
    1W        W63167  20.762  19.734   7.455  0.1998  0.0246  0.0348
    1W        W63168  16.848   0.849   2.465  0.1554 -0.0971 -0.0937
    1W        W63169  19.133  28.371   2.157 -0.1619  0.1118  0.0631
    1W        W63170  24.582  12.276   8.816  0.1611  0.5273  0.3403
    1W        W63171  28.984   4.169   7.837 -0.0830  0.2512 -0.3677
    1W        W63172  22.972  25.057   9.493  0.0376 -0.0774 -0.2870
    1W        W63173  17.713  29.100   0.309  0.0104  0.1548 -0.1971
    1W        W63174  19.178  26.316   1.718  0.0319 -0.0528 -0.1430
    1W        W63175  18.494  21.610   6.229 -0.3910 -0.3568  0.1715
    1W        W63176   7.592  21.261   7.767  0.0270  0.1470  0.1302
    1W        W63177  10.615   8.166   9.513  0.0579 -0.0074 -0.0312
    1W        W63178  29.655   3.976   7.458 -0.1184  0.1565  0.0370
    1W        W63179  23.658   8.488   8.761 -0.0313 -0.2459 -0.0632
    1W        W63180  24.981  29.232   9.346  0.1004 -0.0525 -0.0886
    1W        W63181   0.687   0.104   2.095  0.0618  0.0591 -0.0061
    1W        W63182  15.226   1.876   7.780  0.1585  0.0988  0.1533
    1W        W63183  14.804  13.934   9.191  0.4002  0.0845  0.0223
    1W        W63184  29.353  12.107   1.975  0.1825  0.1268  0.1878
    1W        W63185  10.631   6.303   0.827  0.2234 -0.1997 -0.0364
    1W        W63186  14.825  26.219   0.822  0.6500 -0.1605 -0.1056
    1W        W63187  22.948  24.235   8.064  0.1964 -0.1586 -0.1882
    1W        W63188  19.370   4.088   1.688  0.0431 -0.0641 -0.1081
    1W        W63189   7.515   5.470   2.939  0.0457 -0.0499 -0.0573
    1W        W63190   4.590  29.474   8.356 -0.3825  0.0452 -0.0394
    1W        W63191  24.396  25.108   1.015  0.1458 -0.0577 -0.0424
    1W        W63192  25.725  20.391   3.105 -0.2572  0.2906 -0.0803
    1W        W63193   8.056  17.618   6.269  0.2907 -0.0544  0.0675
    1W        W63194  10.646  26.836   1.030  0.1607  0.0627  0.0938
    1W        W63195   8.089   7.593   1.117 -0.0128  0.1035  0.2104
    1W        W63196   1.170  27.474   0.422  0.3367  0.0124  0.1934
    1W        W63197  16.555  27.255   1.574 -0.0952  0.1196 -0.1321
    1W        W63198   8.306  11.804   7.614  0.1436 -0.0260 -0.1525
    1W        W63199   2.803   0.690   0.339 -0.1276 -0.1163 -0.0739
    1W        W63200  28.244  20.111   9.167  0.0761  0.0167  0.0360
    1W        W63201   2.807   0.463   1.248  0.0830  0.1575  0.1954
    1W        W63202   3.553   7.903   2.053 -0.4361 -0.2426  0.0172
    1W        W63203  14.206  23.065   1.035  0.3964  0.2851 -0.0768
    1W        W63204  29.376  10.252   0.997 -0.0660  0.2529  0.1015
    1W        W63205   5.276  22.211   8.154  0.1065 -0.1109  0.1367
    1W        W63206   5.765  29.286   8.060  0.1055 -0.0843  0.1531
    1W        W63207  14.977  19.389   0.513  0.0077  0.2655 -0.0957
    1W        W63208   3.995  16.989   0.439  0.0551 -0.0928 -0.1353
    1W        W63209  20.538  11.993   7.899 -0.1166 -0.0344  0.0449
    1W        W63210  14.529  10.045   1.533 -0.3105  0.1070  0.4707
    1W        W63211  27.358  21.479   8.650  0.0476 -0.1100  0.0551
    1W        W63212   8.386  24.506   7.886  0.0230 -0.0627  0.2425
    1W        W63213   5.898  22.417   6.186 -0.2563  0.1082 -0.0273
    1W        W63214   4.876  29.585   8.853  0.0197 -0.0082  0.0761
    1W        W63215  14.207  22.876   8.128 -0.1104  0.0452  0.0231
    1W        W63216  28.352  21.580   2.538 -0.3987 -0.2627 -0.0308
    1W        W63217  23.885  12.536   2.281 -0.0580  0.1296 -0.1298
    1W        W63218  19.998   6.683   8.620 -0.1563  0.5375  0.2749
    1W        W63219   8.866  25.434   9.094  0.0033  0.0662  0.0081
    1W        W63220  11.263  12.575   2.567  0.0902  0.1331  0.1101
    1W        W63221  15.593  28.057   7.494 -0.1865 -0.0754 -0.0599
    1W        W63222  28.904  18.555   1.087  0.0809  0.5306  0.0774
    1W        W63223   7.066   2.920   2.582 -0.0828 -0.0710  0.1370
    1W        W63224  21.262  29.677   9.210 -0.2715 -0.0718  0.2065
    1W        W63225  23.691  22.347   2.322  0.0621  0.2295 -0.1926
    1W        W63226  23.607  26.568   7.664  0.1360 -0.0162 -0.3234
    1W        W63227  10.445  18.077   2.252 -0.0561  0.1956  0.0827
    1W        W63228   5.149  23.134   7.095 -0.1371 -0.2397 -0.0336
    1W        W63229  13.951  27.662   8.749 -0.0649 -0.1276 -0.3401
    1W        W63230  18.714  21.971   7.062 -0.2821 -0.1537 -0.1425
    1W        W63231  29.638  12.142   6.752  0.0816  0.4263  0.1020
    1W        W63232  18.105  17.295   1.912 -0.2222  0.2613 -0.1860
    1W        W63233   5.828   9.119   9.099  0.4002  0.1429 -0.1832
    1W        W63234   7.809  19.438   8.764 -0.1290  0.0511 -0.2001
    1W        W63235  29.078  20.437   9.022  0.0932 -0.3082 -0.2448
    1W        W63236   8.348  27.836   9.031 -0.2495 -0.2218 -0.1816
    1W        W63237  28.673  16.287   2.028  0.0387 -0.0892 -0.0996
    1W        W63238   9.574   8.771   8.198 -0.1161 -0.1147 -0.0541
    1W        W63239  25.084   0.176   7.739 -0.1818  0.1269  0.3660
    1W        W63240  17.860  10.723   2.366 -0.3784  0.0273  0.1651
    1W        W63241  25.780  16.983   1.605  0.0866 -0.0454  0.3874
    1W        W63242   8.344   0.014   6.359  0.2068  0.0852 -0.2785
    1W        W63243  23.693   6.153   7.028 -0.0940  0.3838  0.2496
    1W        W63244   2.832  12.887   0.580  0.0664 -0.0772 -0.0200
    1W        W63245  21.469  27.411   7.118 -0.1878 -0.1796 -0.1188
    1W        W63246  25.271  10.406   9.095  0.1190 -0.0709 -0.1336
    1W        W63247   3.918   0.801   1.166 -0.0151  0.1099 -0.2026
    1W        W63248  22.229  16.993   1.093 -0.0196  0.0878 -0.3028
    1W        W63249   7.374  20.367   1.329 -0.1618  0.1553  0.1804
    1W        W63250  25.838   5.969   7.790 -0.3024  0.2000 -0.0252
    1W        W63251   2.728   1.454   8.399 -0.3680  0.2099 -0.3157
    1W        W63252  12.105   1.758   8.749  0.2542  0.3252  0.1140
    1W        W63253  16.351   6.760   7.907 -0.1530  0.0325 -0.2358
    1W        W63254  13.588  26.847   8.111 -0.3411  0.0818  0.1939
    1W        W63255   9.256   4.928   3.247 -0.3141 -0.4468  0.0374
    1W        W63256  17.300  26.234   2.119 -0.1948 -0.2362  0.1047
    1W        W63257  28.831   4.507   1.185 -0.0764 -0.0545  0.2138
    1W        W63258   4.078  10.702   0.621  0.1784 -0.0473  0.1245
    1W        W63259  22.524   0.380   2.448  0.0218  0.1815  0.1021
    1W        W63260   0.368  25.430   6.740  0.0097  0.3318 -0.2001
    1W        W63261  23.647  18.852   7.393  0.1204  0.0864  0.1120
    1W        W63262  27.483  15.426   6.661 -0.2922  0.1730  0.3358
    1W        W63263   5.344  25.602   1.489  0.2613  0.0803  0.1434
    1W        W63264  15.112   8.426   8.358 -0.3915 -0.1424  0.1522
    1W        W63265  21.757  26.488   1.887 -0.1179 -0.0725 -0.0548
    1W        W63266   9.764  25.289   1.214  0.3074 -0.2209  0.5274
    1W        W63267  14.346  12.186   9.131  0.2620 -0.1666 -0.0204
    1W        W63268  22.960  27.115   8.693  0.1425  0.2495  0.1040
    1W        W63269  28.695   2.712   2.402 -0.1544 -0.5200 -0.0031
    1W        W63270  11.947  11.796   7.826 -0.0660 -0.1120 -0.1047
    1W        W63271  19.849   1.979   8.984 -0.2704  0.0008  0.2503
    1W        W63272  17.906  19.835   9.318  0.4725  0.3764  0.0533
    1W        W63273  15.871  28.577   2.423  0.1695  0.1655  0.1679
    1W        W63274   9.333   5.307   2.531  0.0261  0.1280  0.0554
    1W        W63275   5.612   9.557   8.929 -0.0052  0.2270 -0.1778
    1W        W63276  14.124  15.845   0.657 -0.0387  0.3222 -0.2477
    1W        W63277  13.377   4.159   1.711 -0.0545 -0.1700 -0.0184
    1W        W63278  28.260  21.381   1.258  0.1037 -0.3686  0.0415
    1W        W63279  18.627  15.404   9.009 -0.0611  0.2739 -0.1061
    1W        W63280   7.683  16.016   7.663 -0.0020  0.1246 -0.1038
    1W        W63281  23.156  24.462   8.614  0.1548  0.1419  0.0842
    1W        W63282  18.093   6.591   1.885  0.1634 -0.0013  0.0146
    1W        W63283  11.329   6.381   2.731  0.1598  0.0038 -0.2462
    1W        W63284  22.727  21.782   7.637 -0.0757  0.2133  0.1437
    1W        W63285   8.957  23.872   1.004  0.0396  0.2186 -0.3249
    1W        W63286   1.753   1.103   8.744  0.0145  0.0240  0.3631
    1W        W63287  11.323  28.667   7.279  0.2016  0.0513  0.2545
    1W        W63288  29.022  15.628   9.512 -0.1324 -0.0766  0.0227
    1W        W63289  28.809   4.612   1.679 -0.0198 -0.0329 -0.1235
    1W        W63290  11.382   2.732   1.501  0.2110 -0.3488  0.2376
    1W        W63291  21.991  10.619   8.521 -0.4334  0.0481 -0.1668
    1W        W63292   4.671  16.858   9.131  0.0194  0.0896 -0.4528
    1W        W63293  25.332   9.070   8.078 -0.0509  0.0340 -0.3766
    1W        W63294  24.593  26.427   8.443 -0.2229 -0.0995 -0.0739
    1W        W63295  24.349   6.465   3.385  0.1359  0.1745  0.2164
    1W        W63296   7.776   4.414   9.301 -0.2520  0.0957  0.0810
    1W        W63297  16.303   7.678   1.508  0.3277 -0.2981 -0.0638
    1W        W63298  19.033  15.462   9.277 -0.0948  0.1135  0.2036
    1W        W63299  15.544  10.443   0.166 -0.1529  0.0482 -0.0491
    1W        W63300   8.933  29.715   1.078 -0.1261 -0.1886  0.2347
    1W        W63301  17.238  27.571   0.963  0.2185 -0.1699 -0.1883
    1W        W63302   6.082   8.245   6.501  0.2014 -0.2593 -0.3964
    1W        W63303  12.792  24.860   2.122  0.0065  0.0729  0.3108
    1W        W63304  14.375  17.989   0.148 -0.1022  0.1139  0.0586
    1W        W63305  17.499   5.813   2.534  0.0430  0.1102  0.0647
    1W        W63306  22.992  24.209   2.951 -0.3443  0.0554 -0.2467
    1W        W63307  12.567  12.138   8.915 -0.2081 -0.1791 -0.0903
    1W        W63308   1.302   8.146   1.507  0.2193  0.0169  0.1241
    1W        W63309   8.925  28.653   1.817  0.1031  0.0675 -0.2432
    1W        W63310  24.051   2.158   6.890  0.0511 -0.2400 -0.0502
    1W        W63311  20.278  17.133   8.282 -0.1188  0.0096 -0.1260
    1W        W63312  28.918   3.119   3.337 -0.1805  0.1197 -0.4869
    1W        W63313  26.495   3.490   2.159 -0.2515  0.0010  0.0402
    1W        W63314   7.161  28.954   1.431  0.0698  0.2988 -0.0723
    1W        W63315  13.457  24.019   7.377 -0.0344 -0.2501 -0.0567
    1W        W63316  27.425   2.644   9.004  0.0312  0.2023  0.0251
    1W        W63317  12.869   4.473   9.233 -0.2055 -0.2894  0.1755
    1W        W63318  22.678   6.102   2.586  0.3984 -0.4000 -0.2445
    1W        W63319   8.901   0.360   0.573  0.1728 -0.1245 -0.0122
    1W        W63320  17.519  26.359   0.415  0.3219  0.0586 -0.0662
    1W        W63321  23.005   0.766   7.831  0.0112 -0.2556 -0.0418
    1W        W63322  17.207  23.237   9.063  0.1790  0.2403  0.0018
    1W        W63323  18.911  13.088   7.822  0.2084  0.0400 -0.0586
    1W        W63324   0.657  20.572   2.834 -0.1112 -0.0682 -0.1210
    1W        W63325  20.760  17.196   1.407  0.0265  0.1134  0.0053
    1W        W63326  24.766  21.932   9.517 -0.0804 -0.0979 -0.1505
    1W        W63327  12.431  25.300   1.554 -0.1980 -0.3513 -0.0191
    1W        W63328   9.774   1.628   2.335 -0.0667  0.1524  0.2486
    1W        W63329  13.664   5.371   2.189  0.1019  0.1062 -0.0550
    1W        W63330  11.959  13.898   0.506  0.1480 -0.1680 -0.1316
    1W        W63331  15.010  26.397   6.848  0.1413 -0.0240 -0.2823
    1W        W63332  24.301  10.327   6.969  0.4048 -0.1145  0.0264
    1W        W63333   8.329  12.271   9.283 -0.1677  0.0375 -0.0730
    1W        W63334  12.909   0.399   1.471  0.1768 -0.2433 -0.4257
    1W        W63335  22.412  25.712   7.782 -0.2354 -0.0648 -0.3468
    1W        W63336  11.889   0.785   3.892 -0.1717 -0.1243  0.1743
    1W        W63337  10.239   7.917   8.491  0.0467 -0.1926  0.0574
    1W        W63338  22.059  20.370   1.240 -0.0327 -0.1695  0.0830
    1W        W63339  22.757   5.352   3.608 -0.1114  0.5060 -0.0650
    1W        W63340  11.132   3.836   0.963 -0.0139 -0.0879  0.1306
    1W        W63341  13.803   5.072   3.325  0.2612  0.0855  0.2499
    1W        W63342  15.943  29.555   0.778 -0.0738 -0.1101 -0.1985
    1W        W63343   1.930  27.582   1.860 -0.0512 -0.1014 -0.0777
    1W        W63344   4.402  27.846   8.730  0.3055  0.2666  0.0360
    1W        W63345  11.174  14.916   2.471 -0.2475  0.1874  0.1083
    1W        W63346  27.759  19.073   8.043  0.0322  0.0118 -0.0800
    1W        W63347  18.174  21.826   7.986 -0.1863 -0.0665  0.4043
    1W        W63348  29.000  20.703   9.512 -0.0917  0.3673  0.2878
    1W        W63349  21.096   0.515   2.978 -0.0602 -0.2073 -0.4245
    1W        W63350  12.669   2.356   0.799  0.1035  0.2046  0.0801
    1W        W63351   0.766   9.315   7.337  0.2158  0.0081 -0.2753
    1W        W63352  16.561   9.307   0.241  0.1602  0.2902 -0.2931
    1W        W63353  20.543  17.308   9.380  0.0082 -0.2163  0.1013
    1W        W63354  21.228   4.729   3.644 -0.0261 -0.1096 -0.0022
    1W        W63355  24.807  12.002   8.383  0.1109  0.0110 -0.0728
    1W        W63356   0.145  24.060   7.185 -0.1448  0.0412  0.0659
    1W        W63357  23.817  20.262   7.703 -0.1200  0.0584 -0.0443
    1W        W63358  22.554   9.395   7.121  0.1091 -0.2540  0.0140
    1W        W63359  25.669  26.867   8.774 -0.0708 -0.0022 -0.1804
    1W        W63360   8.468   3.014   6.693 -0.0593 -0.0114 -0.0555
    1W        W63361  29.603  14.643   1.827  0.0974 -0.2059  0.2303
    1W        W63362  14.954  10.434   7.724 -0.1387 -0.3370 -0.0877
    1W        W63363   7.765  28.416   2.002  0.4161 -0.3260 -0.1235
    1W        W63364  14.022   5.519   3.532  0.0278  0.0937 -0.0419
    1W        W63365   1.238   3.213   7.291 -0.0540  0.0249 -0.1649
    1W        W63366  16.627  21.097   0.304 -0.1428 -0.1180 -0.0768
    1W        W63367   0.178   6.229   8.871  0.1450  0.2671 -0.2795
    1W        W63368  11.381   9.188   2.603  0.0562  0.3723 -0.0425
    1W        W63369   7.546  26.399   0.085  0.1460 -0.1008  0.3801
    1W        W63370   1.482  10.006   8.290 -0.2696  0.0754 -0.2054
    1W        W63371  26.185  21.720   3.269  0.0274  0.1255 -0.0832
    1W        W63372  13.380  15.580   0.686 -0.2020  0.1258 -0.1963
    1W        W63373  25.999  27.287   8.837  0.5176  0.0929 -0.1505
    1W        W63374   0.181  23.799   6.742  0.0841 -0.0976  0.1180
    1W        W63375  29.007  21.814   3.085  0.0994  0.0230  0.0612
    1W        W63376  20.435  24.686   1.812  0.2747  0.1299 -0.0056
    1W        W63377   1.951   0.354   9.301 -0.0974 -0.1232 -0.0435
    1W        W63378  16.551  10.261   1.677 -0.2852  0.1068 -0.2992
    1W        W63379  24.072   9.082   7.270  0.1388 -0.3543 -0.1146
    1W        W63380  21.095  20.354   6.721 -0.2485  0.0457 -0.2106
    1W        W63381  21.955  20.120   6.551 -0.1150 -0.2125  0.0704
    1W        W63382  18.007  25.333   9.014  0.3214  0.0148  0.1383
    1W        W63383   4.881  13.950   7.725 -0.0143  0.0007 -0.3644
    1W        W63384  27.901  17.360   7.898  0.0352  0.0414  0.0367
    1W        W63385   8.831   3.635   0.442 -0.1763 -0.2612  0.1721
    1W        W63386   1.623  26.708   9.339 -0.1361  0.1434  0.0270
    1W        W63387  15.412   6.959   0.817  0.3634  0.2576 -0.2987
    1W        W63388  29.178  24.545   1.707 -0.0446 -0.0220  0.1627
    1W        W63389   2.295   6.442   0.781  0.1663  0.1190  0.0515
    1W        W63390  19.379   3.364   1.028  0.2087  0.1366 -0.0272
    1W        W63391  18.441   4.264   0.238  0.0399 -0.0875  0.0513
    1W        W63392  10.982   2.909   0.630  0.3495  0.0979 -0.0073
    1W        W63393   0.016  27.784   8.677  0.0114  0.0085  0.0882
    1W        W63394  26.780  16.667   1.141  0.0244 -0.0245  0.1023
    1W        W63395   8.850  10.688   2.863 -0.0220 -0.0238 -0.1003
    1W        W63396  16.331  14.913   7.305  0.0553  0.3095 -0.0094
    1W        W63397   2.669  22.305   1.485 -0.1330 -0.0760 -0.1292
    1W        W63398   6.287  12.923   7.559  0.0262  0.0304  0.0596
    1W        W63399  21.925  21.865   7.917  0.2784  0.0351  0.2227
    1W        W63400  19.504   0.693   3.946  0.0564  0.1907  0.1421
    1W        W63401  26.660   0.824   0.511  0.2870 -0.0910 -0.1532
    1W        W63402  11.840   4.306   2.727 -0.1157  0.2614 -0.0058
    1W        W63403  17.575  12.139   2.799 -0.2328  0.0123  0.2949
    1W        W63404   7.478   4.946   9.244  0.1003 -0.3804 -0.1187
    1W        W63405   0.515   8.562   0.513 -0.0591 -0.2658  0.3128
    1W        W63406  29.130  16.432   2.121 -0.0868  0.0034  0.0307
    1W        W63407  12.996  17.209   8.739  0.0468  0.0361 -0.0522
    1W        W63408  19.810  11.445   7.589 -0.2614 -0.1980 -0.2433
    1W        W63409  28.409   1.632   1.602  0.1147  0.1647 -0.1798
    1W        W63410  27.817  16.761   7.189  0.2447  0.1436  0.2784
    1W        W63411  21.519  18.955   7.304 -0.0310 -0.0268 -0.0112
    1W        W63412   3.022  19.805   0.609  0.1959  0.3544  0.3019
    1W        W63413  11.968  11.714   8.324  0.3010 -0.1482 -0.0718
    1W        W63414  15.993  23.855   0.648  0.3513  0.1750  0.3123
    1W        W63415  20.074  13.905   0.253  0.3177 -0.1388 -0.0636
    1W        W63416   0.192   8.378   7.052  0.1464 -0.0370  0.0866
    1W        W63417  15.785  22.378   6.910 -0.2149  0.2646  0.3126
    1W        W63418  15.447   9.562   8.015  0.2055  0.1117  0.1763
    1W        W63419   2.601   3.187   1.880  0.1482  0.1669 -0.0327
    1W        W63420   5.156   8.189   7.120 -0.4053 -0.3319  0.0203
    1W        W63421  11.057  13.279   1.588 -0.3429  0.2978  0.2488
    1W        W63422  27.035  18.664   5.980  0.1974 -0.1870  0.2021
    1W        W63423  20.820  15.828   1.164  0.1347 -0.0717  0.0088
    1W        W63424   9.847  21.134   8.350 -0.0978  0.0737 -0.1041
    1W        W63425  14.747  18.589   1.784 -0.0480 -0.2007  0.1693
    1W        W63426  26.329   8.963   2.360 -0.0276 -0.2556  0.2276
    1W        W63427   6.440  13.687   8.233 -0.0898  0.2631  0.1408
    1W        W63428   7.962  20.868   9.478 -0.0982 -0.2284 -0.1680
    1W        W63429  14.352  14.867   7.907 -0.1831  0.2123  0.0994
    1W        W63430  10.030  17.979   6.372 -0.3461 -0.0613 -0.1977
    1W        W63431  21.930  10.435   0.778  0.0576 -0.2568  0.1236
    1W        W63432  17.561  17.837   2.004 -0.3694 -0.1600  0.0374
    1W        W63433   9.470  12.328   8.165  0.1617  0.0011  0.0727
    1W        W63434  14.841  19.522   7.215 -0.2821  0.0415 -0.2807
    1W        W63435   4.130  22.173   8.845  0.1989 -0.1219  0.1903
    1W        W63436  13.605  25.284   5.703  0.3135 -0.2474 -0.3047
    1W        W63437  25.170  16.346   8.287 -0.2066  0.1316  0.1907
    1W        W63438  28.014  12.018   1.954 -0.1522 -0.1470  0.0260
    1W        W63439   5.252  23.630   2.448 -0.0502 -0.3424 -0.2586
    1W        W63440  27.817  21.180   8.572  0.1577  0.1486 -0.1087
    1W        W63441   4.640   2.071   7.934  0.1360 -0.0742  0.2615
    1W        W63442   7.364  29.437   1.291 -0.2082  0.1803  0.1984
    1W        W63443   0.785  22.473   7.573  0.1052 -0.0704  0.0708
    1W        W63444   4.390   1.617   8.730 -0.3152  0.1123  0.0480
    1W        W63445  15.039  12.432   7.597 -0.0813  0.0777  0.2864
    1W        W63446  16.255  13.746   7.534 -0.2275 -0.0155 -0.0775
    1W        W63447  12.772  21.289   6.359 -0.2876  0.0584  0.0050
    1W        W63448  21.258  29.712   0.728 -0.3553 -0.1566  0.0519
    1W        W63449  12.052  28.323   1.399  0.0565 -0.0572 -0.1882
    1W        W63450  13.600  14.018   8.414  0.1744 -0.0587 -0.0871
    1W        W63451  16.115  25.398   5.386  0.0301  0.1370  0.0460
    1W        W63452   8.113  16.571   1.619 -0.4629 -0.2633 -0.1062
    1W        W63453  18.890   4.486   1.832  0.1291 -0.1022 -0.0402
    1W        W63454  23.377   3.312   3.273  0.0149 -0.0243  0.2568
    1W        W63455  15.563   6.475   9.046 -0.2706 -0.2527 -0.0369
    1W        W63456  15.647  18.985   0.945 -0.1342 -0.1549  0.1121
    1W        W63457  16.996   7.449   3.059 -0.0831 -0.4302 -0.0214
    1W        W63458  18.903  19.792   9.390 -0.2377  0.1976  0.2173
    1W        W63459  10.194  11.276   6.515  0.3809 -0.0682  0.0111
    1W        W63460   5.125  18.294   2.927  0.2517 -0.1177  0.0429
    1W        W63461   0.058  14.160   8.330 -0.2453 -0.1082 -0.0144
    1W        W63462  14.963   6.995   1.953  0.1702 -0.3681  0.1885
    1W        W63463   4.078   4.218   9.129  0.0386  0.2543  0.0875
    1W        W63464  12.582   2.131   9.161 -0.0590 -0.0177  0.0625
    1W        W63465  10.732   5.475   0.815  0.0098  0.2787 -0.4240
    1W        W63466  22.560  14.896   7.567  0.1442 -0.1513  0.2972
    1W        W63467  27.754  23.687   1.659 -0.0380 -0.1704  0.0309
    1W        W63468  10.953   2.550   2.284 -0.1292 -0.1343  0.3952
    1W        W63469  22.612   3.289   0.664  0.1408 -0.3497  0.0828
    1W        W63470  19.350  25.408   8.399 -0.1330 -0.1550 -0.0023
    1W        W63471  18.881   5.398   1.136  0.0036 -0.1587  0.0383
    1W        W63472  28.678  25.603   9.325  0.1723 -0.1404  0.2728
    1W        W63473  26.845  11.956   8.142  0.1290 -0.1941 -0.1640
    1W        W63474  28.821   8.266   8.518  0.0327 -0.1546  0.2408
    1W        W63475  15.801  27.718   8.440 -0.0577 -0.0288 -0.1693
    1W        W63476  16.324  23.752   7.833 -0.0383  0.0407  0.0571
    1W        W63477   2.494  13.743   8.087  0.0221  0.3748  0.1571
    1W        W63478  28.302  22.182   9.434  0.0519 -0.1511  0.0579
    1W        W63479   7.689   6.465   6.507 -0.0443  0.0244 -0.0304
    1W        W63480  21.508  14.626   9.472  0.3078 -0.1333 -0.0755
    1W        W63481  11.728  10.249   2.785  0.3171 -0.0433  0.4555
    1W        W63482   1.067  19.334   0.858  0.4019  0.0544 -0.1280
    1W        W63483  16.712  16.913   7.016 -0.0286 -0.2150  0.1942
    1W        W63484   8.506  10.539   0.070  0.2753 -0.1508 -0.0692
    1W        W63485  17.953  12.913   0.590 -0.3740 -0.3357 -0.2415
    1W        W63486  21.107  28.435   7.485 -0.0562  0.1587  0.1705
    1W        W63487  19.074  18.077   9.429 -0.0213  0.1479 -0.3533
    1W        W63488  19.483   8.187   8.493  0.0430 -0.0131  0.2960
    1W        W63489   3.319   8.706   2.142  0.1611 -0.2178 -0.2344
    1W        W63490   4.592  18.198   7.719 -0.0179 -0.1231 -0.0422
    1W        W63491  24.938  25.423   7.441  0.0161 -0.0890  0.0001
    1W        W63492  21.075   4.729   2.105 -0.5662 -0.1666 -0.1878
    1W        W63493  14.818   3.673   1.692  0.2180  0.2111  0.1518
    1W        W63494  17.109  27.105   6.456  0.1976  0.1266 -0.0196
    1W        W63495  19.626  24.946   5.360  0.1919  0.3244 -0.2041
    1W        W63496  16.434   8.702   8.008  0.1174  0.1848  0.0961
    1W        W63497  28.819  11.199   6.954  0.1535  0.3881  0.3496
    1W        W63498  27.101  25.940   8.613 -0.1768 -0.2139 -0.0970
    1W        W63499  25.665   2.173   7.190 -0.1280 -0.2895 -0.4412
    1W        W63500  11.336  11.679   2.592 -0.0158  0.0464  0.2730
    1W        W63501  29.181   5.531   0.675  0.0661  0.0488 -0.1941
    1W        W63502   6.972  22.716   7.923  0.0644 -0.0677  0.3180
    1W        W63503  20.740  11.278   7.508  0.4676 -0.0063  0.1049
    1W        W63504   6.260  18.079   1.613 -0.0111 -0.2117  0.0033
    1W        W63505  13.412  15.201   2.118 -0.0545 -0.0313  0.0347
    1W        W63506  15.216  12.675   1.103 -0.1640 -0.0789  0.1978
    1W        W63507  16.601   5.901   9.505  0.0338  0.0106  0.1054
    1W        W63508   1.404  13.977   7.023  0.1939  0.0842  0.0361
    1W        W63509   7.912  26.780   8.910  0.1007 -0.1826 -0.1538
    1W        W63510  27.795  25.275   8.539  0.1030  0.1695 -0.0240
    1W        W63511  25.621   1.041   1.410  0.0907 -0.0717  0.0592
    1W        W63512  23.956  13.221   0.302 -0.0152  0.1854  0.2382
    1W        W63513  25.965  12.038   2.435 -0.4542  0.0398 -0.1157
    1W        W63514   9.705   6.750   3.467  0.1484  0.1213 -0.2270
    1W        W63515   8.815   4.744   8.607 -0.2178  0.2855  0.1639
    1W        W63516  19.302  17.994   7.815  0.1674 -0.3998 -0.0328
    1W        W63517  11.338  27.136   9.076 -0.1603  0.3312 -0.0766
    1W        W63518  19.275  27.819   1.854  0.0707 -0.1882 -0.6210
    1W        W63519  15.682   7.102   3.235 -0.2997  0.0782 -0.0658
    1W        W63520  16.140  13.477   0.265 -0.0030 -0.0847 -0.1271
    1W        W63521  13.683  18.827   7.018 -0.2359  0.0467  0.1385
    1W        W63522  13.954  16.512   0.332 -0.0838  0.1200 -0.0481
    1W        W63523   8.788  12.689   8.528  0.2884 -0.4204 -0.1451
    1W        W63524  26.798  29.002   0.069 -0.0221 -0.5352  0.2423
    1W        W63525   7.163  13.046   7.220 -0.0423 -0.1184  0.0456
    1W        W63526  18.749   5.717   7.633  0.0473 -0.0017 -0.0372
    1W        W63527  20.117  27.922   1.551 -0.2521 -0.1671  0.0370
    1W        W63528  14.557  20.069   8.114 -0.1007  0.3548  0.0614
    1W        W63529  11.165  21.048   7.582 -0.2131  0.2580 -0.1898
    1W        W63530  16.004  27.781   7.910  0.2086  0.0541  0.1229
    1W        W63531   2.777  26.243   7.056  0.0962 -0.0910  0.1721
    1W        W63532  23.636  20.042   9.269  0.3387 -0.1422 -0.2026
    1W        W63533  22.430  27.899   7.977  0.0076  0.1018 -0.1324
    1W        W63534  14.635  29.125   9.469 -0.1184 -0.0258  0.1694
    1W        W63535  16.800  19.102   0.079 -0.1350 -0.1802 -0.1098
    1W        W63536   8.789   7.105   6.586  0.3454 -0.0097  0.3388
    1W        W63537  22.165  22.172   7.555 -0.0740 -0.2903  0.0513
    1W        W63538  15.725  20.119   5.808 -0.0090  0.0040  0.1221
    1W        W63539  11.345  20.463   0.776  0.2136  0.0933  0.2045
    1W        W63540   1.038  20.582   1.444 -0.2756 -0.2136 -0.0324
    1W        W63541  22.890   9.687   1.583  0.2020  0.2376  0.0240
    1W        W63542   8.453   2.702   0.330  0.0487 -0.0469 -0.1106
    1W        W63543  28.892  27.582   2.230 -0.0322 -0.1919  0.0887
    1W        W63544  23.963  29.322   0.080  0.1269 -0.1773  0.4116
    1W        W63545  13.925  29.616   0.602  0.0752 -0.0460 -0.0286
    1W        W63546   4.860   7.972   2.254 -0.3631 -0.2690  0.0771
    1W        W63547  15.780  22.556   5.998 -0.1809 -0.6681 -0.1035
    1W        W63548   8.997  24.072   8.316 -0.3176  0.1787  0.1856
    1W        W63549   6.600   0.232   1.529 -0.1469 -0.0704  0.4288
    1W        W63550   2.748  14.355   0.989  0.3715 -0.0385  0.1901
    1W        W63551  25.978   0.612   9.379  0.3245 -0.0202 -0.0621
    1W        W63552  11.483  12.628   8.352 -0.1427  0.2186  0.0162
    1W        W63553  16.186   4.270   9.128  0.0273 -0.1500 -0.1073
    1W        W63554   8.907  19.121   1.495  0.0891 -0.2390 -0.0126
    1W        W63555  11.697   1.384   8.726  0.1103  0.2374 -0.2129
    1W        W63556  23.018   2.709   7.823  0.0769 -0.1533 -0.0999
    1W        W63557   2.408  16.974   8.032  0.2210 -0.1383  0.0759
    1W        W63558  16.040  17.827   0.495 -0.3236 -0.0662  0.0813
    1W        W63559  26.599  29.069   0.866  0.0075  0.1879 -0.1903
    1W        W63560   3.141  21.793   1.141  0.0961 -0.0138 -0.0110
    1W        W63561  18.334   0.771   7.537 -0.1955  0.1086  0.1213
    1W        W63562  17.440  28.261   0.120  0.0928 -0.2869  0.2346
    1W        W63563   0.171   6.242   2.272 -0.2291  0.0135 -0.1230
    1W        W63564  21.144   9.243   8.190 -0.0305 -0.0196  0.1307
    1W        W63565   7.591   9.489   6.593 -0.0770 -0.2861  0.3293
    1W        W63566  23.333  25.072   2.104  0.0453  0.0079  0.3075
    1W        W63567  22.446  16.906   6.909 -0.0556 -0.1222 -0.0605
    1W        W63568  17.422  19.780   9.180  0.0933  0.3551  0.1800
    1W        W63569   1.082  29.459   6.131 -0.1783  0.1554  0.3168
    1W        W63570  13.165  16.598   0.773  0.2362 -0.2239 -0.2650
    1W        W63571  16.907  16.232   2.012 -0.0437 -0.1079 -0.3057
    1W        W63572   2.628   9.151   1.636  0.0379 -0.2619 -0.2424
    1W        W63573  16.411  15.433   7.041 -0.0561  0.0019 -0.5896
    1W        W63574   4.464  14.819   8.595  0.2810 -0.1255  0.1701
    1W        W63575  25.566  15.526   1.951  0.2666  0.1041  0.2922
    1W        W63576  12.368   7.205   8.057 -0.1327  0.0001 -0.1101
    1W        W63577   3.006  14.601   0.632  0.0845 -0.1707  0.0811
    1W        W63578  18.727   4.880   8.696  0.0015  0.1681  0.0916
    1W        W63579   0.426   2.118   1.481 -0.0217  0.3094  0.1427
    1W        W63580  20.181  25.528   6.003 -0.0526  0.1194 -0.2847
    1W        W63581  23.357  22.409   7.109 -0.0285  0.0383  0.1367
    1W        W63582   8.091  27.193   6.556  0.2820 -0.2748 -0.3634
    1W        W63583   5.153  29.853   7.464 -0.2048 -0.2565 -0.0683
    1W        W63584  25.986  28.388   1.090  0.2417  0.1650 -0.4975
    1W        W63585  14.014  15.157   8.123  0.0345 -0.0920 -0.0311
    1W        W63586  28.565   0.298   9.250  0.2675  0.2740 -0.1208
    1W        W63587  15.424   8.260   9.277 -0.3221 -0.2704  0.1048
    1W        W63588  28.865   5.682   8.511 -0.0971  0.1699 -0.0525
    1W        W63589   3.597   0.364   7.282  0.2066 -0.1009 -0.1179
    1W        W63590   5.976   7.749   0.874  0.1381 -0.0655  0.0672
    1W        W63591  23.765  27.908   1.114  0.0761 -0.0808 -0.0917
    1W        W63592   7.343   9.639   7.010  0.1074  0.3176 -0.0755
    1W        W63593  10.613  28.043   6.821 -0.2544  0.0639  0.0824
    1W        W63594  24.677   8.216   2.122  0.2511  0.2104 -0.1717
    1W        W63595  10.628  15.893   6.911  0.0769 -0.2784  0.3612
    1W        W63596  21.180   9.158   9.463  0.1442  0.1711 -0.0622
    1W        W63597   9.074  16.280   9.273 -0.1464 -0.0450  0.1247
    1W        W63598  28.795   7.934   1.002 -0.0282  0.3454 -0.0240
    1W        W63599  22.762   0.264   3.301  0.1313 -0.1499 -0.0960
    1W        W63600  23.492  15.712   7.303  0.5033 -0.2207 -0.1285
    1W        W63601  14.724   1.833   7.254 -0.0969 -0.2189 -0.1350
    1W        W63602  14.795   0.810   9.300  0.0836 -0.0265 -0.1491
    1W        W63603   2.641  14.840   6.635 -0.1521  0.2295 -0.1071
    1W        W63604  12.565  21.702   8.561  0.0126  0.1679 -0.2289
    1W        W63605  14.572  16.098   0.980  0.0091 -0.0415  0.3394
    1W        W63606  12.579  20.691   2.020  0.0382  0.0035 -0.2498
    1W        W63607  27.774  12.915   0.084 -0.2816  0.1175 -0.0679
    1W        W63608  26.018   0.980   2.428  0.0612 -0.1367 -0.0457
    1W        W63609  13.322   1.562   2.528 -0.2114 -0.3496 -0.2770
    1W        W63610   1.465  27.203   1.335 -0.1679  0.0943  0.0937
    1W        W63611   6.381  26.673   0.324 -0.1416 -0.2013 -0.2805
    1W        W63612  15.935  21.505   5.573  0.0069  0.0521  0.2260
    1W        W63613   5.584  14.098   1.272  0.1660 -0.0269  0.1710
    1W        W63614   9.240   1.240   9.231  0.2833  0.1006 -0.1318
    1W        W63615  24.897  22.636   0.947 -0.0694 -0.3086 -0.2391
    1W        W63616   6.674  25.115   2.044  0.0203 -0.0677 -0.1979
    1W        W63617  23.536   2.460   7.663  0.0601 -0.1026  0.0810
    1W        W63618  12.085   8.260   1.677  0.5539  0.1604 -0.2180
    1W        W63619  14.857  13.185   1.670  0.3541 -0.1249  0.3449
    1W        W63620  18.521  27.408   9.389 -0.0574 -0.0042 -0.0441
    1W        W63621   8.146   4.455   7.233  0.1244 -0.1872 -0.2649
    1W        W63622  10.408  13.855   0.404 -0.2320  0.0777 -0.1618
    1W        W63623  19.207  29.798   0.305  0.3085  0.2824  0.0494
    1W        W63624  21.932   1.806   3.199 -0.1078 -0.0104 -0.0244
    1W        W63625  17.898  25.903   0.535  0.1343  0.0520 -0.1983
    1W        W63626  25.911   0.919   8.489  0.1601 -0.0239 -0.3221
    1W        W63627  14.022  14.571   7.637 -0.1791  0.1232  0.3224
    1W        W63628   7.749  24.527   0.619 -0.3024  0.0952  0.0664
    1W        W63629   4.953   6.312   3.271  0.1814 -0.0617 -0.5704
    1W        W63630  27.352  24.781   3.147 -0.3017 -0.0137  0.1042
    1W        W63631  16.294  13.190   8.532  0.0860 -0.1315  0.2118
    1W        W63632  22.897   8.198   1.548  0.3156 -0.0167 -0.2246
    1W        W63633   1.769  21.213   1.675  0.2018  0.0897 -0.1647
    1W        W63634   4.171   0.104   0.366 -0.1010  0.0972 -0.0567
    1W        W63635  17.094  22.545   1.058  0.1977  0.0417  0.0840
    1W        W63636  27.184   9.574   2.294 -0.0565  0.2025 -0.0276
    1W        W63637   3.798   8.033   1.560 -0.0272  0.2278 -0.0583
    1W        W63638   9.525   6.747   1.371  0.2472  0.0974  0.0697
    1W        W63639  22.322   2.339   9.222  0.0151 -0.0352  0.2468
    1W        W63640  20.660  26.248   9.188  0.0973  0.0640  0.3834
    1W        W63641  13.269  17.092   0.595  0.2444 -0.3385 -0.0001
    1W        W63642   9.170  11.904   0.114  0.1828 -0.0768  0.2400
    1W        W63643  18.538  14.114   6.924 -0.1390 -0.2650  0.2021
    1W        W63644  28.673  12.227   8.164  0.0982  0.1232  0.2737
    1W        W63645   4.004   2.600   8.628 -0.1757  0.2972 -0.2199
    1W        W63646  24.760  14.977   7.194 -0.1246 -0.0292 -0.2072
    1W        W63647  17.347  25.732   0.035 -0.2936  0.0867  0.0239
    1W        W63648  15.427  22.084   7.677 -0.0347 -0.0087  0.1367
    1W        W63649   5.509  29.614   7.768 -0.1747  0.2508  0.1452
    1W        W63650  22.345  23.251   7.028  0.0221  0.1300  0.0375
    1W        W63651  24.969   9.239   2.555  0.2665  0.1100  0.2620
    1W        W63652  10.158  15.279   6.152 -0.0975 -0.1093  0.0994
    1W        W63653  19.923  19.005   6.642  0.2686 -0.0688  0.1852
    1W        W63654   5.662  29.511   8.722  0.0136 -0.3298  0.0054
    1W        W63655  12.387  17.130   7.240 -0.1883  0.0148  0.2151
    1W        W63656  21.895  19.820   7.767 -0.2756 -0.1123 -0.0157
    1W        W63657   4.988   8.121   0.843 -0.3670 -0.2098 -0.3488
    1W        W63658  14.574   7.262   2.180 -0.0672 -0.2185  0.0559
    1W        W63659  17.444  15.276   0.874  0.1951 -0.0390  0.0459
    1W        W63660   3.657   4.031   7.824  0.0591 -0.3793 -0.2074
    1W        W63661  28.661  28.758   9.075 -0.0535 -0.2295 -0.4044
    1W        W63662  11.480   2.348   2.841  0.2862 -0.0258 -0.2186
    1W        W63663   6.530  26.425   1.842 -0.1712 -0.0978  0.2927
    1W        W63664  24.514  12.756   1.787 -0.2334  0.0478 -0.0528
    1W        W63665  21.588   7.391   8.909  0.0550  0.1883 -0.2463
    1W        W63666  24.579  16.969   7.129 -0.0131  0.1438 -0.0340
    1W        W63667   3.272   2.208   1.004  0.1350  0.1521  0.1711
    1W        W63668  23.036  25.198   8.278  0.0108 -0.0400  0.0143
    1W        W63669  16.121  24.921   1.666  0.1574  0.0195  0.2267
    1W        W63670  23.655  22.068   9.212  0.1689  0.1461 -0.1653
    1W        W63671   4.994   5.723   2.661 -0.0538  0.1403  0.1378
    1W        W63672   0.413   5.238   9.293 -0.2071 -0.2352 -0.0425
    1W        W63673   9.519  12.223   1.726 -0.3285  0.0641 -0.2995
    1W        W63674  18.209   1.049   4.040  0.1993 -0.0317 -0.0368
    1W        W63675   0.408  25.333   1.250 -0.2277  0.0875 -0.2293
    1W        W63676   0.726  11.874   7.693 -0.2195  0.2599 -0.2717
    1W        W63677  21.885  18.724   6.771  0.2152 -0.0105  0.0334
    1W        W63678  11.757   9.551   1.215 -0.3670 -0.0577 -0.0673
    1W        W63679  10.944  28.482   6.903  0.3365  0.3004 -0.2190
    1W        W63680  26.834  26.461   5.970 -0.0279  0.1088  0.4332
    1W        W63681   9.755   4.708   3.262  0.1849 -0.0613  0.0025
    1W        W63682  29.278   1.020   2.583  0.1758  0.1070  0.1495
    1W        W63683  14.720  25.035   8.194 -0.0259  0.3645  0.0326
    1W        W63684   2.313  23.826   2.422 -0.0360  0.1186  0.0827
    1W        W63685  13.266   2.472   8.312 -0.3843  0.1275  0.0321
    1W        W63686  29.005  28.770   5.813 -0.0341  0.0033  0.2197
    1W        W63687  13.662  20.287   8.541 -0.1579 -0.0616  0.1607
    1W        W63688  17.448  11.009   8.712  0.0083  0.3390 -0.0457
    1W        W63689   6.173  18.986   6.991  0.0693  0.0475  0.0137
    1W        W63690  25.464   7.265   7.655 -0.1682  0.0596 -0.2307
    1W        W63691   3.412  13.751   8.234  0.3909  0.2149  0.2488
    1W        W63692  20.991   7.769   0.746  0.1221  0.0234 -0.0465
    1W        W63693   1.711  24.654   1.286 -0.2927 -0.1372  0.0379
    1W        W63694  22.597  24.827   1.832 -0.1559  0.1078 -0.0336
    1W        W63695   8.385  15.029   8.642 -0.1463  0.1555  0.1983
    1W        W63696  19.208  20.419   0.849 -0.0530  0.2211 -0.0559
    1W        W63697  12.347  14.447   0.654 -0.0832 -0.2734 -0.2162
    1W        W63698  18.865  25.994   0.831 -0.2432  0.5657 -0.0617
    1W        W63699   7.268  24.390   8.419 -0.2522 -0.0167 -0.1883
    1W        W63700  28.595  23.251   9.333  0.0377  0.0119  0.0828
    1W        W63701  11.078  24.024   0.494  0.4402 -0.0515  0.0133
    1W        W63702  29.561  12.522   7.742 -0.0705 -0.1105  0.0598
    1W        W63703   5.245  25.841   7.768  0.1997 -0.0186 -0.0221
    1W        W63704   6.232   5.281   6.989  0.2564  0.0142  0.0560
    1W        W63705   9.642   6.127   8.520  0.3040 -0.0550  0.5868
    1W        W63706   9.993  25.679   7.119  0.1644  0.2240  0.0264
    1W        W63707   9.037   1.704   6.495 -0.0859  0.0638 -0.0641
    1W        W63708  28.264  28.504   7.186 -0.1445 -0.3358  0.0736
    1W        W63709  24.364  19.547   8.508 -0.2764  0.0642 -0.0336
    1W        W63710   9.320  26.440   1.000  0.2307 -0.2507 -0.0920
    1W        W63711   6.492   5.105   7.375  0.0698  0.1650  0.3506
    1W        W63712   8.566  15.760   1.511  0.0957 -0.1820 -0.2479
    1W        W63713  12.963  11.745   9.092 -0.0149  0.3567  0.1445
    1W        W63714  22.328   1.678   2.152 -0.1716 -0.1965  0.1429
    1W        W63715  12.316  29.569   7.712 -0.1892 -0.1696 -0.1364
    1W        W63716  19.466  10.703   0.287  0.2940  0.1121  0.2067
    1W        W63717  22.661  27.527   0.811 -0.3170 -0.0785 -0.2196
    1W        W63718  11.700  14.170   9.025  0.1513  0.3608  0.4969
    1W        W63719  15.349  21.417   1.266 -0.0490  0.2540 -0.0695
    1W        W63720  18.077   0.343   2.764  0.2953  0.0333  0.0822
    1W        W63721   1.755   2.447   8.385 -0.0040  0.2977  0.3035
    1W        W63722  28.649  18.726   0.094 -0.1033 -0.0084  0.1251
    1W        W63723  26.760  10.463   9.102 -0.0776 -0.2003 -0.2603
    1W        W63724  22.946   2.821   2.098 -0.0283  0.3289 -0.0867
    1W        W63725  22.565   0.610   2.945 -0.0536 -0.1186 -0.0919
    1W        W63726  27.041  21.971   1.007 -0.1856  0.0145  0.0977
    1W        W63727  15.770   4.313   1.496  0.0172 -0.1084 -0.0946
    1W        W63728   0.048  10.747   7.455  0.0154 -0.1413  0.0424
    1W        W63729  29.814  19.785   1.454 -0.0956 -0.0066 -0.1823
    1W        W63730   4.353  24.705   0.292 -0.2174  0.0804  0.1064
    1W        W63731   4.710  10.381   6.572  0.2277  0.1333  0.1279
    1W        W63732  19.620  22.958   8.969  0.1726  0.0496  0.0469
    1W        W63733  19.886   8.880   8.781 -0.3234 -0.0965 -0.1794
    1W        W63734   1.163  26.148   7.454  0.2002  0.0416 -0.1571
    1W        W63735   9.909  21.207   1.113 -0.0197 -0.0577 -0.1570
    1W        W63736  27.333  10.171   1.537  0.2033 -0.2468 -0.1718
    1W        W63737   4.626  23.738   0.373 -0.0313 -0.0799 -0.1514
    1W        W63738  11.379  24.433   1.674  0.1476 -0.0425  0.2508
    1W        W63739  21.931  26.025   8.417 -0.0406  0.0859 -0.1542
    1W        W63740  22.130  21.319   1.621  0.2196 -0.0467  0.0528
    1W        W63741  16.602  29.105   7.576 -0.0549  0.2286 -0.1593
    1W        W63742   3.929  15.075   1.093 -0.1981  0.0597  0.0670
    1W        W63743  13.154  22.205   0.817 -0.0007 -0.3521  0.3179
    1W        W63744   9.011  26.491   1.417 -0.1098  0.2332 -0.0656
    1W        W63745   9.421   0.675   1.397 -0.1296 -0.0839 -0.0447
    1W        W63746  18.107  18.517   0.766 -0.0500 -0.0637  0.0765
    1W        W63747   3.445   9.652   2.156 -0.2349  0.0963  0.3519
    1W        W63748  14.595   4.787   2.900 -0.1133  0.3129 -0.0667
    1W        W63749   1.521   8.172   9.229  0.0368  0.3476  0.0925
    1W        W63750  23.115  29.601   0.392  0.0796 -0.2142 -0.1031
    1W        W63751  17.619  28.551   3.405  0.2473  0.2702 -0.1446
    1W        W63752  12.569  27.009   1.330  0.0972  0.1316  0.1522
    1W        W63753  22.764  25.848   7.421 -0.0839  0.0429  0.1244
    1W        W63754  13.964   8.255   2.844  0.0040  0.2126 -0.1713
    1W        W63755   7.733  17.230   8.863 -0.0668 -0.2844 -0.1519
    1W        W63756   7.504  10.341   1.242 -0.2818  0.3808  0.2551
    1W        W63757  29.456  29.325   2.097 -0.1050 -0.2112 -0.1488
    1W        W63758  20.154  12.595   0.786  0.0633  0.1265 -0.1612
    1W        W63759  26.420  25.187   8.728  0.2410 -0.1199  0.1424
    1W        W63760   3.103   5.485   1.535  0.0258 -0.1901  0.2741
    1W        W63761  14.872  18.870   6.528 -0.3521 -0.1241  0.1473
    1W        W63762  21.923   1.333   2.927 -0.0162 -0.1745  0.1205
    1W        W63763   3.361  17.340   9.383  0.0985  0.3893 -0.1301
    1W        W63764   8.405   2.402   8.171 -0.1260  0.0794  0.0802
    1W        W63765   0.286  21.278   1.454 -0.0920  0.1612 -0.2744
    1W        W63766   9.663  11.918   7.906  0.1807 -0.1520 -0.1708
    1W        W63767  28.203   8.572   2.940  0.3374 -0.1067  0.3255
    1W        W63768  15.346  27.860   0.403 -0.1444 -0.0563  0.0413
    1W        W63769   8.901  26.192   1.839 -0.0696  0.1040 -0.2042
    1W        W63770  11.869   5.077   9.160  0.0477 -0.3795  0.0460
    1W        W63771  22.891  29.299   1.153 -0.2296  0.1523 -0.4160
    1W        W63772  18.183  22.580   7.566 -0.1148  0.0580  0.2474
    1W        W63773   9.668  13.752   2.350  0.1680  0.1794 -0.0732
    1W        W63774   7.471  11.652   2.650 -0.2264 -0.2430 -0.0373
    1W        W63775  11.381  24.585   6.984  0.0970  0.3313 -0.1448
    1W        W63776  16.363  17.719   6.933  0.0946  0.1505  0.0539
    1W        W63777  16.956  21.753   0.848  0.1983 -0.1524  0.0763
    1W        W63778  15.328  22.985   7.714  0.1503  0.0695  0.1511
    1W        W63779   8.723   7.789   7.071 -0.0049  0.1729  0.5054
    1W        W63780   4.138  25.963   6.348  0.2696 -0.1335 -0.2854
    1W        W63781  16.505  11.554   6.892  0.2175 -0.1267 -0.0615
    1W        W63782   3.446   2.995   7.891  0.5340 -0.0100 -0.1232
    1W        W63783  29.700  19.503   0.090  0.1481  0.0604  0.1843
    1W        W63784  25.139   3.107   2.537  0.0202  0.0024 -0.2474
    1W        W63785   2.914  10.884   1.790  0.1704  0.2069 -0.1532
    1W        W63786  26.506  11.956   1.146 -0.0198 -0.1897 -0.1492
    1W        W63787  12.698  15.110   8.824  0.0581  0.1986 -0.0281
    1W        W63788   7.272   6.929   6.469  0.0811 -0.0046 -0.2366
    1W        W63789  19.599  10.934   7.559  0.1619 -0.3892 -0.2217
    1W        W63790   8.151  17.017   8.964 -0.1502 -0.0510  0.2018
    1W        W63791  22.001   2.795   1.213  0.0393 -0.0889  0.0067
    1W        W63792   9.053   6.968   0.210 -0.0510 -0.3834 -0.3102
    1W        W63793  29.137  15.045   9.318  0.1671  0.1028  0.0634
    1W        W63794  11.887   2.895   0.909 -0.3018  0.0625 -0.1862
    1W        W63795   0.290  26.673   7.193  0.3609  0.3071 -0.5404
    1W        W63796   6.986  20.916   6.647  0.2953 -0.1682  0.0106
    1W        W63797   0.751  26.019   6.101 -0.2471  0.0774  0.0971
    1W        W63798  20.471   8.357   1.167  0.2029  0.3587 -0.0949
    1W        W63799  24.313  25.814   9.400  0.2324 -0.1690 -0.0936
    1W        W63800   3.892  24.184   7.129  0.1231  0.0620 -0.2856
    1W        W63801   9.204  15.566   8.007 -0.2379  0.0160  0.1599
    1W        W63802   2.651   4.380   1.586  0.1425  0.1880 -0.2202
    1W        W63803  20.297  26.171   1.428  0.2250 -0.0582  0.1659
    1W        W63804  12.839  23.537   9.505  0.1375  0.1806  0.2791
    1W        W63805   2.569   8.481   9.315  0.1033 -0.1775  0.0679
    1W        W63806   0.985   8.719   8.306 -0.4808 -0.2090  0.1245
    1W        W63807  16.526   0.815   1.388  0.0269 -0.3667  0.0094
    1W        W63808  29.360  16.974   2.873 -0.1643 -0.1630 -0.1626
    1W        W63809  24.721   8.621   1.807 -0.0982  0.2297 -0.0024
    1W        W63810  20.837  29.433   0.479  0.0325 -0.1020 -0.1534
    1W        W63811  27.397  21.192   0.737 -0.3397  0.2893  0.0693
    1W        W63812  18.465  27.424   0.301  0.0660 -0.1254 -0.2079
    1W        W63813  10.351   4.368   9.434 -0.0545 -0.0880 -0.0110
    1W        W63814  25.472   1.871   8.749 -0.2476 -0.0225  0.1150
    1W        W63815  22.845  24.874   8.583 -0.2368 -0.0905  0.1195
    1W        W63816   4.694  22.309   6.316 -0.2683 -0.3954  0.3550
    1W        W63817   5.362  21.740   8.172  0.1715  0.2480  0.1710
    1W        W63818  12.728   6.376   0.707 -0.0295  0.1598  0.0787
    1W        W63819   9.100   4.583   0.980  0.0640 -0.0806  0.0858
    1W        W63820   2.404  24.828   8.114  0.1227 -0.0801  0.0335
    1W        W63821  29.258  28.206   1.058  0.1695 -0.0719  0.1748
    1W        W63822   3.411  28.521   9.139 -0.1514 -0.2801  0.1790
    1W        W63823  24.743  25.607   1.133  0.2964  0.0757 -0.0539
    1W        W63824  13.018   6.198   3.564 -0.3171  0.0136  0.2439
    1W        W63825   4.178  24.320   7.500  0.1281  0.0127  0.3327
    1W        W63826   6.134  10.299   1.577 -0.0444 -0.1514 -0.2800
    1W        W63827  13.744  23.338   0.879 -0.0521 -0.2343 -0.0479
    1W        W63828  29.701  25.412   0.012 -0.1865 -0.0447 -0.0598
    1W        W63829  23.899   3.981   7.176 -0.1534 -0.1260  0.0626
    1W        W63830   9.315  21.371   0.148  0.1785 -0.1205  0.4436
    1W        W63831  13.862   0.348   9.225 -0.1328 -0.1943 -0.1505
    1W        W63832  20.520   4.549   8.856 -0.1867 -0.0211 -0.0380
    1W        W63833   7.259  18.866   0.080  0.0862  0.0799 -0.0350
    1W        W63834  17.834  15.312   7.619  0.2519  0.1099 -0.1087
    1W        W63835  27.399  20.612   0.606 -0.1728 -0.2546 -0.1610
    1W        W63836  26.412  22.315   8.480 -0.3801  0.4498 -0.0219
    1W        W63837   0.954  21.151   7.093  0.0053 -0.2618 -0.0342
    1W        W63838  15.398   8.883   8.246 -0.0137 -0.1533 -0.1880
    1W        W63839  27.435   9.415   0.140 -0.1071  0.2577 -0.2073
    1W        W63840   6.758   6.112   1.187  0.0793 -0.0937  0.0946
    1W        W63841  22.946  27.560   8.951 -0.2424 -0.1677  0.0226
    1W        W63842  10.380   6.939   1.641  0.1605 -0.3694 -0.1788
    1W        W63843  28.326  10.991   9.376  0.1131 -0.0363 -0.1156
    1W        W63844  20.953  18.193   9.476  0.0557  0.1292  0.0491
    1W        W63845   7.524   8.531   9.455  0.0197  0.0953  0.1872
    1W        W63846   6.861  22.635   6.302 -0.0425  0.0009 -0.1395
    1W        W63847  25.993   2.654   9.110  0.4602 -0.1644  0.3284
    1W        W63848  12.267  18.542   1.495 -0.0068  0.2009  0.1229
    1W        W63849  10.141  17.185   0.559 -0.1136 -0.1398 -0.0229
    1W        W63850  16.306  25.983   1.768  0.1535  0.0673  0.0366
    1W        W63851  23.829  26.235   8.962 -0.1807  0.0598  0.0705
    1W        W63852   4.264   8.384   3.005 -0.3542 -0.0399 -0.0308
    1W        W63853  20.059  26.543   0.712 -0.0995 -0.0649 -0.0973
    1W        W63854  23.694  29.748   0.023  0.1445  0.0068  0.2171
    1W        W63855  18.335  24.499   7.877 -0.0604  0.0896  0.4034
    1W        W63856   6.857  14.423   1.903 -0.2418 -0.2848 -0.1427
    1W        W63857  14.801   7.139   3.066 -0.1011 -0.2795  0.3448
    1W        W63858  29.842   9.863   2.478  0.5950 -0.0796  0.0475
    1W        W63859   2.418   4.998   0.359 -0.2903  0.1314 -0.1206
    1W        W63860   4.122   7.319   3.159  0.0284  0.0735  0.1976
    1W        W63861  28.901  28.417   0.368 -0.0775  0.0670 -0.1431
    1W        W63862  15.233  12.942   8.521  0.0369 -0.0241  0.4495
    1W        W63863  15.512   6.452   0.058  0.1883  0.1511 -0.1395
    1W        W63864  27.512   2.297   8.191 -0.1956 -0.0207  0.2521
    1W        W63865   1.330   5.875   6.444  0.1814  0.2219  0.0180
    1W        W63866   5.930  14.520   1.501 -0.0482 -0.0941 -0.2802
    1W        W63867   7.781  16.305   7.221 -0.2283  0.2094  0.1553
    1W        W63868  28.308  28.194   3.078  0.3105  0.3797 -0.2960
    1W        W63869  17.836   9.321   8.335 -0.0985  0.2434 -0.1511
    1W        W63870  21.471   2.002   1.463 -0.2596  0.1989  0.0979
    1W        W63871  28.533  16.828   7.579 -0.1341 -0.0181  0.1974
    1W        W63872   7.654   7.872   0.820  0.1603  0.2512  0.1957
    1W        W63873  24.226  13.072   9.112  0.2537 -0.2237  0.2830
    1W        W63874   0.889   2.021   6.019 -0.2108  0.0736 -0.2794
    1W        W63875   5.834  21.495   7.498 -0.1625  0.2466 -0.0925
    1W        W63876   2.121   1.772   9.298  0.0126 -0.1893 -0.1017
    1W        W63877   2.581  22.390   0.690 -0.0523 -0.1189  0.4132
    1W        W63878  14.609  29.786   7.085  0.0070  0.0563 -0.0609
    1W        W63879  12.848  16.533   9.507 -0.2362 -0.1603  0.1767
    1W        W63880   8.118  20.919   5.750  0.1386  0.0663  0.0475
    1W        W63881  20.842  24.389   9.287 -0.1562  0.3344  0.0537
    1W        W63882  27.210  14.142   0.120  0.0277  0.1942 -0.2099
    1W        W63883   3.050  17.779   7.100  0.1401 -0.0178 -0.0427
    1W        W63884  19.120   6.355   1.032 -0.1353  0.2571  0.0085
    1W        W63885   2.579  16.526   8.344 -0.1879 -0.1346  0.1460
    1W        W63886  17.032  26.728   7.752 -0.1172 -0.0565 -0.2537
    1W        W63887  21.860  16.813   8.026 -0.3655 -0.1523  0.2508
    1W        W63888   7.176   1.127   2.284 -0.0896 -0.0197 -0.0352
    1W        W63889   0.621  24.129   6.844  0.1413 -0.2824  0.4498
    1W        W63890  10.035   5.133   7.655 -0.0037  0.2427  0.3137
    1W        W63891  17.573  20.934   9.006 -0.4234 -0.1047 -0.0113
    1W        W63892  21.878   4.188   8.856  0.1062  0.1960 -0.0352
    1W        W63893  25.185   5.661   9.104  0.3114 -0.0157 -0.3170
    1W        W63894   8.959  19.738   7.054  0.1341  0.1657 -0.0882
    1W        W63895  13.827  28.939   8.146  0.1316  0.2207  0.0145
    1W        W63896  11.748  12.305   2.067 -0.0046 -0.0078  0.1113
    1W        W63897  27.364  16.561   6.913 -0.1852 -0.2312  0.0944
    1W        W63898  27.295   0.243   0.312 -0.2762 -0.0316  0.0385
    1W        W63899   5.634   3.016   6.845 -0.2335  0.2778 -0.0893
    1W        W63900  28.595  27.704   8.688  0.0956  0.2506  0.2554
    1W        W63901  18.988   7.472   3.582 -0.1131  0.0895 -0.0173
    1W        W63902   6.190  28.315   1.852  0.0653 -0.1450 -0.0207
    1W        W63903  10.059  28.251   2.590 -0.2110 -0.2210 -0.0732
    1W        W63904   4.113   6.741   0.588  0.2919  0.1483  0.0635
    1W        W63905   4.353  16.529   8.888  0.0653 -0.1341 -0.1768
    1W        W63906  23.033  15.302   7.512  0.1677  0.0109  0.1323
    1W        W63907  16.312  21.819   7.913  0.1149  0.0149 -0.0410
    1W        W63908   6.697   7.833   0.478  0.3871  0.2644 -0.2479
    1W        W63909   6.957  26.320   7.040 -0.0980 -0.1431  0.0546
    1W        W63910   7.671  22.977   5.814 -0.1077 -0.0767 -0.0503
    1W        W63911   0.438  19.072   7.377 -0.0877  0.0901  0.0053
    1W        W63912  12.215  11.360   1.349  0.1832 -0.0904  0.1073
    1W        W63913  27.565  14.822   2.924  0.0200  0.4566  0.2874
    1W        W63914   2.297  20.744   2.970  0.0893  0.2554 -0.2306
    1W        W63915  10.054  23.048   1.544  0.3467 -0.1570 -0.0221
    1W        W63916   8.166  22.100   7.959  0.0044  0.3229  0.0122
    1W        W63917  23.145  11.934   0.065 -0.0861  0.0735  0.2746
    1W        W63918   9.143  16.628   8.315 -0.1954 -0.1721  0.1654
    1W        W63919  13.468  17.914   7.861  0.1990 -0.0240  0.1035
    1W        W63920   8.222   2.066   1.406 -0.1122 -0.0382  0.0666
    1W        W63921  15.695  22.460   9.013  0.1487 -0.1679  0.0758
    1W        W63922  23.367  26.072   7.909  0.1166  0.0093 -0.1178
    1W        W63923  18.359  28.065   2.871  0.0617  0.2274  0.2291
    1W        W63924  25.821   0.003   1.800  0.1101 -0.1933 -0.2117
    1W        W63925   4.372  16.821   2.717 -0.1921 -0.1856 -0.2534
    1W        W63926   1.099  22.814   2.560  0.1754 -0.0882 -0.3876
    1W        W63927  19.176  24.298   0.605 -0.0883  0.1305  0.1203
    1W        W63928  14.168  26.198   9.104 -0.2347  0.3262 -0.0690
    1W        W63929  21.893  28.712   1.419  0.0174 -0.0970 -0.1105
    1W        W63930   3.962  25.488   8.282  0.2524 -0.1982  0.0344
    1W        W63931   9.994  15.577   8.455 -0.1167  0.0014 -0.1817
    1W        W63932  23.108  21.714   2.969 -0.3779 -0.2607 -0.0667
    1W        W63933   0.307  26.927   6.406  0.0563  0.1339  0.1011
    1W        W63934   8.401  19.527   0.729 -0.0230 -0.1914  0.3760
    1W        W63935  18.677  19.371   6.227  0.0401 -0.2140 -0.0263
    1W        W63936  19.036   0.318   1.679 -0.4698  0.1723 -0.1610
    1W        W63937   4.448  12.808   2.868  0.2215  0.0070  0.0752
    1W        W63938  17.721   8.884   1.136 -0.0460 -0.2947 -0.3407
    1W        W63939  27.475   1.622   1.422 -0.0613  0.0358  0.3245
    1W        W63940  25.878  16.173   8.651 -0.2612 -0.1945  0.2856
    1W        W63941   0.642  16.100   1.234 -0.0243 -0.2813 -0.2750
    1W        W63942   4.788  22.187   1.759  0.2005 -0.2111 -0.0138
    1W        W63943  17.385   2.854   2.998  0.1733  0.2621 -0.3396
    1W        W63944  18.882  22.725   6.566  0.0761  0.3825 -0.1992
    1W        W63945  26.598  20.033   7.985 -0.2834  0.2758  0.2418
    1W        W63946   5.871   7.565   8.196  0.1826  0.1236 -0.0787
    1W        W63947  10.047   3.168   9.044  0.0494  0.1716  0.2947
    1W        W63948   7.745  15.920   8.512 -0.1439  0.2340 -0.1695
    1W        W63949   1.867  25.531   7.884 -0.1351  0.2228 -0.0553
    1W        W63950  24.723  11.745   1.409  0.1469  0.1472 -0.0757
    1W        W63951   8.802  20.230   1.945  0.2119 -0.1599 -0.0468
    1W        W63952  26.540  12.914   0.788 -0.1466  0.0339  0.1670
    1W        W63953  14.811  20.032   7.205  0.0251 -0.1075 -0.2732
    1W        W63954  19.752  16.700   1.401  0.0199  0.1772 -0.1833
    1W        W63955  18.956   1.765   9.177  0.0083  0.0532  0.0516
    1W        W63956  22.028  28.974   1.028 -0.2963  0.4817 -0.1652
    1W        W63957  24.496  27.475   2.432 -0.0195 -0.1368  0.1000
    1W        W63958  29.499   6.024   1.578  0.1254  0.0153  0.1561
    1W        W63959   9.649  11.408   8.830  0.0569 -0.0344 -0.0246
    1W        W63960  20.451  23.307   6.387 -0.1265  0.0915  0.0652
    1W        W63961  21.231   0.762   2.508 -0.0080  0.0011  0.1112
    1W        W63962  28.634  13.954   8.558 -0.2920 -0.1459  0.0295
    1W        W63963  28.616  29.193   9.480  0.0077 -0.1958  0.3180
    1W        W63964   2.909  20.457   1.233 -0.0593 -0.0630  0.1397
    1W        W63965   6.902  12.271   8.801  0.3980  0.1002 -0.0320
    1W        W63966  18.017  16.310   7.506  0.0559  0.1983  0.0370
    1W        W63967  18.849  21.529   0.601  0.1007 -0.0536 -0.0979
    1W        W63968   0.181   0.329   6.597 -0.0906  0.2008  0.1677
    1W        W63969  18.082   5.277   8.010  0.1346 -0.0778 -0.2203
    1W        W63970  15.133  22.719   0.680  0.1193  0.1901  0.1932
    1W        W63971  27.496   7.469   7.922  0.1710 -0.0529 -0.3186
    1W        W63972  21.310   6.956   2.692 -0.3524  0.2621 -0.1483
    1W        W63973   1.629  21.826   8.989 -0.1973 -0.0188 -0.0645
    1W        W63974  13.643  14.630   7.307  0.3032  0.1210 -0.0138
    1W        W63975  28.005  10.051   8.705 -0.3571 -0.1212 -0.0087
    1W        W63976  27.730  18.356   1.166  0.3367 -0.1083  0.0448
    1W        W63977  15.707  13.182   2.094  0.2944  0.0386 -0.0909
    1W        W63978   6.623   9.331   7.516 -0.0933 -0.1537  0.0308
    1W        W63979  28.508  11.510   7.491 -0.1561 -0.0344 -0.1147
    1W        W63980  23.813   1.938   8.838  0.1211 -0.1616 -0.0371
    1W        W63981   5.543   2.490   0.330  0.0344  0.0455  0.0064
    1W        W63982   8.094  21.179   2.355 -0.0948  0.0255  0.0549
    1W        W63983  14.501  16.122   7.526  0.1328 -0.0610 -0.1172
    1W        W63984  26.155  25.513   2.738 -0.0524 -0.0401  0.3059
    1W        W63985  23.539  29.558   6.707 -0.0363 -0.2645  0.1608
    1W        W63986   4.325  13.984   1.582  0.2960 -0.0083 -0.2687
    1W        W63987  21.305   5.557   0.727  0.1884  0.0896  0.2378
    1W        W63988  21.321  28.535   7.065 -0.0713 -0.3248 -0.1295
    1W        W63989  17.006   9.173   3.096 -0.4020 -0.0409 -0.0549
    1W        W63990   6.086   3.027   6.477  0.1866 -0.3703  0.1455
    1W        W63991   8.066  29.622   2.671  0.0960  0.1518  0.1246
    1W        W63992  29.123  17.800   7.156 -0.3168 -0.1750  0.0462
    1W        W63993  23.394   4.924   0.609 -0.3128  0.4307 -0.1103
    1W        W63994  25.926  27.620   6.977 -0.2301  0.0009  0.2500
    1W        W63995  12.838   3.616   2.828 -0.2510 -0.1440 -0.0555
    1W        W63996  13.869   0.273   7.654  0.1901  0.1497 -0.3380
    1W        W63997  29.459   1.014   6.941 -0.2017  0.1749  0.1568
    1W        W63998  27.791  14.822   7.208 -0.1635 -0.0490 -0.0108
    1W        W63999   2.742   3.988   6.929 -0.0231 -0.2649 -0.1719
    1W        W64000  24.669  17.083   6.629  0.0399 -0.1739  0.2434
    1W        W64001   8.173   2.608   2.202  0.1333 -0.3230  0.1470
    1W        W64002   0.764  27.005   2.158 -0.0428 -0.0938 -0.0740
    1W        W64003  11.745  23.288   6.629 -0.1812 -0.0512  0.0522
    1W        W64004  19.323   8.897   2.255  0.3456 -0.0783 -0.1012
    1W        W64005  17.399   5.818   3.392  0.1825  0.2748  0.0186
    1W        W64006  27.756   5.016   2.372  0.1721  0.4041 -0.2163
    1W        W64007  22.780  17.702   7.219  0.1953  0.0941 -0.3201
    1W        W64008  17.665  14.115   9.501 -0.1561 -0.1108 -0.0998
    1W        W64009   8.509  27.829   1.954  0.0003 -0.1881  0.0100
    1W        W64010  21.515  10.184   1.961 -0.2061 -0.0885 -0.1098
    1W        W64011  11.823  17.323   0.905  0.1518 -0.1328 -0.0284
    1W        W64012  16.709   6.323   2.620 -0.0760  0.1053  0.1006
    1W        W64013  10.605  27.301   0.709  0.2277  0.2256 -0.0209
    1W        W64014  12.323  27.749   0.832 -0.1259  0.0808 -0.2902
    1W        W64015  18.538   7.836   2.773 -0.0070  0.0291 -0.2667
    1W        W64016   5.186  20.460   8.124 -0.0320 -0.0326  0.0228
    1W        W64017  25.484   6.322   9.466  0.0765 -0.0934  0.2234
    1W        W64018  16.091  25.752   7.224  0.0205 -0.2733 -0.0350
    1W        W64019   2.881  25.299   1.471  0.1053  0.1057 -0.1829
    1W        W64020  16.460  17.578   0.691  0.0505  0.1163  0.1177
    1W        W64021   2.176   2.493   0.431  0.1541  0.0524 -0.1427
    1W        W64022  11.226  21.020   8.657 -0.0633  0.0346  0.0593
    1W        W64023   9.916  16.646   5.463  0.1279  0.0289  0.0247
    1W        W64024  22.482  10.456   6.971  0.3777 -0.1429  0.0054
    1W        W64025  19.271  13.918   1.981 -0.1444  0.3759 -0.0940
    1W        W64026   4.139  26.822   0.037  0.1357 -0.1643 -0.3169
    1W        W64027  11.768  10.249   9.529  0.1152  0.2330 -0.1345
    1W        W64028   8.029   2.741   9.206 -0.0170  0.4252  0.1007
    1W        W64029  25.388  14.720   1.706 -0.2124 -0.2568  0.0242
    1W        W64030  20.546  26.512   1.075 -0.2963  0.3139 -0.3354
    1W        W64031  16.423  16.216   1.856  0.0025  0.1002  0.1602
    1W        W64032  20.298  27.325   7.173  0.1435 -0.2313  0.2290
    1W        W64033  18.758   0.326   7.595 -0.0698 -0.3123  0.2035
    1W        W64034   0.890  29.673   1.588  0.2743  0.1110 -0.0173
    1W        W64035  10.510   9.591   0.353 -0.2696  0.1577 -0.1487
    1W        W64036   6.162   3.298   3.433 -0.0039 -0.0186 -0.2927
    1W        W64037  25.929   9.814   0.016 -0.0703  0.0273 -0.0433
    1W        W64038   0.417   6.170   7.815 -0.1223 -0.1743  0.1418
    1W        W64039  20.894  18.678   1.646 -0.1034 -0.0552  0.2512
    1W        W64040  10.403  14.852   9.023 -0.0553 -0.0251 -0.2373
    1W        W64041  12.526  21.675   1.181 -0.2253 -0.1085  0.0086
    1W        W64042   4.684   6.314   7.938  0.0951  0.2456  0.2411
    1W        W64043   8.777   5.692   3.190  0.0479 -0.0161 -0.2533
    1W        W64044  25.234  17.210   6.856 -0.0271  0.2690 -0.1033
    1W        W64045  10.361  12.251   6.386  0.2175 -0.0709 -0.0501
    1W        W64046   1.648  15.087   0.387  0.0244  0.1346 -0.2148
    1W        W64047  17.372  20.948   8.534 -0.1377 -0.2429 -0.3009
    1W        W64048  25.857  28.607   0.604  0.0929 -0.0110 -0.3459
    1W        W64049  10.251  10.557   8.845 -0.0645 -0.0504 -0.1592
    1W        W64050  11.880   9.132   2.010  0.2400 -0.1630 -0.0344
    1W        W64051  14.032  10.881   0.285 -0.5214 -0.1356 -0.0095
    1W        W64052  11.498   3.006   8.839 -0.0597 -0.0114  0.0030
    1W        W64053  25.720   6.886   8.735  0.0907 -0.0134 -0.2997
    1W        W64054  24.864  17.391   8.540  0.0039  0.0087  0.1812
    1W        W64055  23.109   6.510   9.075 -0.0916 -0.0587  0.0273
    1W        W64056  10.447   9.866   8.714 -0.2260 -0.2070  0.0367
    1W        W64057  17.934   5.834   3.435  0.3376  0.0399 -0.2540
    1W        W64058  29.449   7.966   7.601 -0.1545  0.0901 -0.0319
    1W        W64059  26.519   4.176   0.923 -0.1369 -0.0311  0.3170
    1W        W64060  12.674  20.267   1.098 -0.3650  0.4042 -0.1463
    1W        W64061   6.223  19.315   9.024 -0.5441 -0.1770  0.1679
    1W        W64062  10.539  17.444   0.495  0.1170  0.1070  0.1626
    1W        W64063   5.870   0.596   7.010  0.0974  0.2420  0.1267
    1W        W64064  13.635  14.651   6.798 -0.0347  0.0127  0.0354
    1W        W64065   0.249  14.091   7.248  0.4084  0.0869  0.1154
    1W        W64066  16.904  29.260   2.143  0.0236 -0.0848 -0.1391
    1W        W64067  16.243  12.905   8.940  0.0270  0.0409 -0.2362
    1W        W64068   2.809   2.391   1.014  0.1012 -0.1003  0.0807
    1W        W64069  10.647  11.781   2.698 -0.0369  0.2012 -0.2653
    1W        W64070  10.657  22.520   8.722  0.0249 -0.1014 -0.2602
    1W        W64071  12.181  17.988   6.636 -0.4101 -0.2140  0.0560
    1W        W64072  21.372   6.339   2.579  0.2568  0.1986  0.1991
    1W        W64073   4.001  15.371   7.934  0.0773  0.0902  0.1340
    1W        W64074  12.293  17.746   9.061  0.1631 -0.0085 -0.1698
    1W        W64075  24.881  27.242   2.781  0.2259  0.0033  0.2344
    1W        W64076  10.173  27.564   6.820  0.1546 -0.1368 -0.0770
    1W        W64077   2.205  27.154   1.038  0.1010 -0.1146  0.0109
    1W        W64078   3.605   7.523   0.169 -0.5044  0.1529 -0.0441
    1W        W64079   6.258  12.142   6.398  0.1306  0.2527 -0.0349
    1W        W64080  19.589   2.926   1.941 -0.0703 -0.0051  0.0541
    1W        W64081  20.348  21.817   1.072 -0.0049 -0.0828  0.1519
    1W        W64082   3.254  15.083   0.413  0.1763  0.0115 -0.1113
    1W        W64083   4.556   3.864   7.490  0.1449 -0.1221  0.1573
    1W        W64084  16.414  16.722   6.677 -0.0497 -0.1677  0.0322
    1W        W64085  28.217  18.496   8.740  0.3431  0.1103  0.0081
    1W        W64086   9.313   9.814   2.250 -0.0141 -0.0677 -0.1172
    1W        W64087   7.283  10.744   7.734  0.0460  0.0236 -0.0003
    1W        W64088   3.841  26.619   0.933  0.3109  0.0121 -0.0419
    1W        W64089  20.859  16.340   8.520  0.0053  0.0465 -0.0003
    1W        W64090  24.957   7.054   1.229 -0.0415 -0.1781 -0.1285
    1W        W64091   3.074  12.754   6.377  0.3383 -0.2150  0.1316
    1W        W64092  27.428  27.817   1.354 -0.1110 -0.0823 -0.0346
    1W        W64093  14.284  21.704   5.616 -0.0202 -0.0872  0.1254
    1W        W64094  24.878  15.946   0.679  0.0435  0.3162  0.1346
    1W        W64095   7.032  29.189   0.464 -0.1519 -0.2929  0.1785
    1W        W64096  23.195  26.955   2.057 -0.0488 -0.0872  0.1683
    1W        W64097  23.481  15.276   7.131 -0.2666 -0.1168 -0.3673
    1W        W64098  15.612   5.077   0.518 -0.1366  0.0225 -0.1441
    1W        W64099  29.633  15.328   6.807 -0.3538  0.0637  0.3465
    1W        W64100  28.133  14.073   7.698  0.2751 -0.2316 -0.1802
    1W        W64101  11.854  12.564   0.718  0.0362  0.1545  0.1584
    1W        W64102  21.979  25.056   8.244  0.1282  0.2031  0.1464
    1W        W64103   2.623  20.435   1.731  0.2216 -0.0767 -0.0712
    1W        W64104   3.252   5.570   8.213  0.0536  0.0255  0.1612
    1W        W64105  11.265   6.368   8.371 -0.1956  0.1398  0.2204
    1W        W64106  25.857   1.781   7.440  0.3649 -0.2406  0.2910
    1W        W64107  19.474  24.714   8.478 -0.0447 -0.1836 -0.2002
    1W        W64108  14.323  27.136   6.728  0.1531 -0.5379  0.1216
    1W        W64109   9.683  11.415   6.913 -0.2968 -0.2554  0.0046
    1W        W64110  26.034  17.142   0.436  0.1761  0.3023  0.0464
    1W        W64111   3.264   1.703   0.236  0.2419 -0.0780  0.3708
    1W        W64112   9.923  17.590   7.179  0.1492  0.2025  0.0472
    1W        W64113   0.318  14.590   0.448 -0.0164 -0.0021 -0.3608
    1W        W64114  20.554  26.557   0.585  0.0929  0.0992 -0.0241
    1W        W64115  22.336   1.922   8.678  0.0554 -0.2019  0.1407
    1W        W64116  17.588   1.135   0.851  0.0819 -0.2920  0.2793
    1W        W64117   2.062   9.780   1.433  0.1249  0.3136 -0.2619
    1W        W64118  22.751  23.115   2.996 -0.2103 -0.0023  0.3569
    1W        W64119   1.276  17.992   1.539  0.0407  0.0096  0.0300
    1W        W64120  25.587  26.988   0.592  0.0654  0.0085  0.0278
    1W        W64121  23.348  28.117   0.156  0.0584 -0.4112  0.0933
    1W        W64122  13.129  25.893   6.988 -0.1815  0.1514  0.1411
    1W        W64123   9.620   1.090   7.859 -0.0899 -0.0242 -0.2548
    1W        W64124   4.933  19.080   2.516  0.2408 -0.0661 -0.3119
    1W        W64125  19.544  22.503   6.544  0.0953  0.1614 -0.1305
    1W        W64126  11.910   4.230   2.215 -0.3522  0.0215  0.0255
    1W        W64127  26.223  10.033   8.270 -0.0566 -0.2179  0.0013
    1W        W64128  27.670   4.373   2.951  0.2042  0.0326  0.3523
    1W        W64129  12.760  23.221   6.178  0.1194 -0.1037 -0.1390
    1W        W64130  19.531   7.795   0.160  0.0214  0.0104  0.0219
    1W        W64131   3.664  16.602   7.690  0.1759 -0.2435 -0.1025
    1W        W64132  25.146  13.127   8.119 -0.2070 -0.2164 -0.1652
    1W        W64133  26.708  23.471   9.438  0.0428  0.1346  0.0024
    1W        W64134  16.995  21.917   6.256  0.2455 -0.1456  0.1115
    1W        W64135  13.157   3.229   7.205 -0.0212  0.3418  0.0283
    1W        W64136  18.393  27.527   7.825 -0.0061  0.1158 -0.0758
    1W        W64137   2.159   0.289   0.282  0.0036  0.0102 -0.0936
    1W        W64138   9.017  28.331   5.812 -0.1896  0.0559 -0.1734
    1W        W64139  18.717  26.521   6.286 -0.1379  0.3359  0.1251
    1W        W64140   8.681  26.138   5.649  0.1455 -0.0309 -0.0101
    1W        W64141   2.156  20.380   6.982  0.2382  0.0207  0.2514
    1W        W64142  17.488  24.079   8.529 -0.1876 -0.1417 -0.1508
    1W        W64143  24.339  16.457   8.725  0.1835 -0.2032 -0.0178
    1W        W64144   1.164  18.410   2.257  0.3483 -0.3088 -0.0658
    1W        W64145  17.551  14.973   7.075 -0.1365 -0.2898  0.1494
    1W        W64146   8.023  29.754   6.698  0.4011  0.2535 -0.1211
    1W        W64147   6.714  25.924   8.896 -0.0029 -0.0874 -0.0697
    1W        W64148  10.090  25.538   0.230  0.2182 -0.0988  0.1855
    1W        W64149  19.231  21.911   7.397  0.2049 -0.4082  0.2386
    1W        W64150  11.672  19.358   8.235 -0.2610 -0.0234 -0.1022
    1W        W64151  23.662  14.376   1.358  0.1526  0.1631  0.2121
    1W        W64152   3.373  29.113   0.043  0.1033 -0.1549  0.1766
    1W        W64153   8.000  25.381   1.534 -0.0394 -0.1105 -0.0387
    1W        W64154  23.415   8.259   8.009  0.2216 -0.0797 -0.1045
    1W        W64155  16.141  20.648   4.803 -0.2321 -0.2771  0.0941
    1W        W64156  10.963  26.727   1.435  0.1971  0.0631 -0.1093
    1W        W64157   6.490  14.592   7.868  0.2625  0.0969 -0.0401
    1W        W64158  26.073  29.695   6.655  0.3889 -0.2398 -0.1918
    1W        W64159   7.738  10.131   2.029 -0.0976  0.0977 -0.2859
    1W        W64160   5.814   1.593   8.709 -0.0522 -0.1728  0.0194
    1W        W64161  21.614  12.631   2.605  0.0764 -0.0003 -0.1379
    1W        W64162   8.372  21.823   7.148 -0.1186  0.1132 -0.1181
    1W        W64163  22.334  12.393   6.705 -0.0493 -0.0621 -0.2437
    1W        W64164  28.086   2.015   7.601 -0.0911  0.0899  0.1020
    1W        W64165   0.592  16.983   7.001 -0.0375  0.0198  0.0405
    1W        W64166   7.211  23.079   7.164  0.2793 -0.2530  0.0330
    1W        W64167   6.651  21.928   0.776  0.5012 -0.2746  0.0541
    1W        W64168  27.541  29.308   1.213 -0.2351 -0.1849  0.2207
    1W        W64169   2.207  15.663   0.034 -0.1780  0.1256 -0.0487
    1W        W64170  27.757   3.171   8.287  0.1632 -0.0399 -0.1149
    1W        W64171   0.219  25.586   8.528 -0.0591 -0.1063 -0.3127
    1W        W64172   2.090  10.822   1.850  0.3206 -0.3643 -0.1731
    1W        W64173   5.562   2.707   2.672  0.2319 -0.0321 -0.1635
    1W        W64174  27.613  16.957   1.115 -0.2245  0.0620 -0.1354
    1W        W64175  13.005   4.184   8.850 -0.3267  0.1618 -0.1875
    1W        W64176  10.850  12.775   2.647  0.2742 -0.1893  0.1712
    1W        W64177  12.753  29.781   2.339  0.0161  0.3607 -0.1413
    1W        W64178   2.417  26.429   7.876 -0.1221  0.0910  0.1462
    1W        W64179  21.728   3.261   1.869  0.2264 -0.0917 -0.0245
    1W        W64180   5.036   2.369   0.370 -0.0359  0.1712 -0.0967
    1W        W64181   2.683  11.765   8.519 -0.0184 -0.1111  0.1196
    1W        W64182   5.899  23.815   1.285 -0.2283 -0.0814  0.0523
    1W        W64183  24.480   0.875   3.344  0.4349  0.0165  0.0173
    1W        W64184   7.498  13.697   2.207  0.0176 -0.2058 -0.0661
    1W        W64185   8.708   7.350   2.640 -0.0528  0.0085  0.0925
    1W        W64186  28.183  17.633   7.145  0.0093  0.3541  0.3264
    1W        W64187   6.885   4.309   7.970 -0.2777 -0.2264 -0.3228
    1W        W64188  10.061  15.749   6.848 -0.2056 -0.2148  0.1327
    1W        W64189   4.101  10.956   3.049  0.2909 -0.1141  0.2631
    1W        W64190  15.497  19.676   1.454  0.0700  0.4270 -0.2335
    1W        W64191   2.521  22.613   8.417 -0.0863 -0.0550 -0.0673
    1W        W64192   6.995   2.930   7.018  0.2381 -0.3941  0.0799
    1W        W64193   4.348  22.920   8.461 -0.0311  0.0819 -0.0703
    1W        W64194  13.686  18.372   9.261 -0.1566  0.2573  0.1659
    1W        W64195  23.571  10.374   7.393 -0.3118  0.1221  0.0277
    1W        W64196  26.336  14.262   7.542 -0.0543  0.1413 -0.4303
    1W        W64197  14.530  22.140   8.957  0.0980  0.2214 -0.1386
    1W        W64198   5.616  24.708   1.836 -0.0971 -0.0531 -0.0367
    1W        W64199   6.528   1.093   9.136  0.1303 -0.2481  0.3099
    1W        W64200  22.658   6.306   2.160  0.1920  0.1326 -0.0983
    1W        W64201  21.916  18.383   1.309  0.1747 -0.5420  0.0072
    1W        W64202  16.454  21.671   1.016 -0.1069 -0.1081 -0.0940
    1W        W64203  28.470  28.561   0.775  0.0092  0.0851  0.2056
    1W        W64204  22.960  27.064   1.216  0.1323 -0.0256  0.1083
    1W        W64205  22.946  15.781   9.353  0.1245  0.2901 -0.0611
    1W        W64206  12.166  24.169   6.228 -0.1273 -0.1923 -0.3980
    1W        W64207   4.232   2.887   0.556  0.2143 -0.0659  0.3691
    1W        W64208   5.379   7.404   2.486  0.1772 -0.1196  0.0220
    1W        W64209   2.250   5.331   7.562 -0.0415  0.0927 -0.0969
    1W        W64210  29.820  28.939   0.712  0.1481  0.2700 -0.0059
    1W        W64211   1.592  20.176   6.018  0.0393 -0.2382 -0.2773
    1W        W64212   2.688  28.169   0.064  0.3614 -0.1880  0.3244
    1W        W64213  18.788  24.218   0.934 -0.1224  0.2026 -0.0051
    1W        W64214  26.063  21.630   8.879 -0.0117 -0.2080  0.0016
    1W        W64215  21.520   0.263   2.359 -0.3041 -0.1569  0.2284
    1W        W64216   1.632   2.413   0.872  0.2246 -0.3531 -0.2125
    1W        W64217   5.811  25.335   0.799  0.1123  0.0513  0.1651
    1W        W64218  25.861  24.839   7.842  0.0066  0.3351 -0.3056
    1W        W64219   4.895  18.913   6.894  0.0085  0.1792  0.2239
    1W        W64220  19.392  23.729   5.715  0.4389 -0.0281 -0.0634
    1W        W64221  28.646  11.686   3.038  0.2068  0.0386 -0.1086
    1W        W64222   9.804  14.173   1.041  0.1287  0.0533 -0.0658
    1W        W64223   3.699   3.036   1.902 -0.1066 -0.0873 -0.0629
    1W        W64224   7.623   4.046   7.938 -0.4255 -0.1170  0.3500
    1W        W64225  13.855   5.647   1.804  0.1104 -0.0008 -0.2591
    1W        W64226  12.231   6.947   2.315 -0.3128 -0.1777  0.1826
    1W        W64227  10.200  14.269   0.232  0.0037 -0.1086 -0.1255
    1W        W64228  13.169  22.555   7.823  0.1494 -0.1149  0.2751
    1W        W64229  27.432  11.082   9.340  0.0091  0.1353 -0.3827
    1W        W64230  26.085   7.700   1.481 -0.1624  0.0217 -0.1452
    1W        W64231  15.637   1.091   0.978  0.0177  0.2531 -0.1314
    1W        W64232   0.699  16.809   9.467 -0.0276 -0.1107 -0.1936
    1W        W64233  11.722   0.776   8.196  0.1229 -0.1397  0.0673
    1W        W64234   6.695  13.896   7.741 -0.0865  0.1802  0.4866
    1W        W64235  22.172   2.418   8.713  0.2136  0.1080  0.0150
    1W        W64236  20.429  23.856   1.658 -0.0009  0.2102 -0.1233
    1W        W64237  23.280   7.141   0.770  0.2490  0.1664  0.1971
    1W        W64238  10.141  17.972   6.864  0.0013 -0.0456 -0.1471
    1W        W64239  21.278  18.357   8.721  0.0015  0.4288 -0.2597
    1W        W64240  29.729  26.154   6.123  0.0295  0.0319 -0.2938
    1W        W64241  11.167   1.799   7.511 -0.0369  0.0896  0.2665
    1W        W64242   4.902   6.358   2.211  0.2507 -0.0896 -0.4325
    1W        W64243   1.740  17.358   8.803  0.2089  0.0020  0.0193
    1W        W64244  16.444   3.405   3.933  0.0157  0.0991 -0.2241
    1W        W64245  13.667  16.441   8.512  0.2209 -0.1468 -0.1989
    1W        W64246   7.484  28.222   0.659  0.1633  0.1463 -0.1174
    1W        W64247   0.594  19.838   6.792 -0.2168 -0.0124 -0.0764
    1W        W64248  10.497   6.373   8.084 -0.1984  0.0780 -0.2649
    1W        W64249   8.633  15.371   1.810  0.3209 -0.2050 -0.0604
    1W        W64250  24.248   7.098   9.361 -0.3320 -0.0927 -0.2870
    1W        W64251   1.533  25.937   7.698  0.1192 -0.1454 -0.1428
    1W        W64252  16.101   2.671   2.863 -0.0790  0.1607 -0.1878
    1W        W64253   2.439  20.127   0.407 -0.0199 -0.2437  0.0976
    1W        W64254   9.900  24.591   0.429 -0.1493  0.2355 -0.1712
    1W        W64255  12.261  18.246   9.191 -0.4249 -0.1166 -0.0157
    1W        W64256   2.596  25.267   8.469  0.3375 -0.4544 -0.0174
    1W        W64257  13.020   5.023   3.243 -0.0235  0.1423  0.2024
    1W        W64258  10.887  15.937   1.423  0.0067  0.3049 -0.0643
    1W        W64259   7.602   1.817   8.475 -0.1111  0.0679  0.0584
    1W        W64260  18.084   7.530   8.756 -0.2072 -0.1561  0.0272
    1W        W64261  11.907  19.122   2.080  0.1325 -0.3385 -0.2786
    1W        W64262   0.934   9.096   2.025 -0.2403  0.1792 -0.2914
    1W        W64263   6.062  16.131   0.966  0.1763 -0.3511  0.1195
    1W        W64264   1.575   4.495   1.111 -0.3967  0.0533  0.1134
    1W        W64265  10.044  24.504   7.593  0.1978  0.1007  0.0797
    1W        W64266   3.287   0.694   0.009 -0.0730  0.1780 -0.2150
    1W        W64267  14.615  13.607   0.557  0.0764  0.1269  0.0705
    1W        W64268  27.669   9.438   7.862 -0.0244 -0.0502  0.1012
    1W        W64269  16.246  26.625   0.992 -0.0396 -0.0100  0.3283
    1W        W64270  20.042   6.992   9.019  0.0996  0.0276  0.1716
    1W        W64271  20.802  19.378   6.509  0.2430  0.0354  0.0832
    1W        W64272   8.020  18.612   1.672 -0.2249 -0.2010 -0.3457
    1W        W64273  21.858   2.008   1.911  0.0622 -0.3660 -0.0190
    1W        W64274  16.426   9.332   0.748  0.0469 -0.2490 -0.0789
    1W        W64275  11.176  17.667   9.152  0.0301 -0.1677 -0.0134
    1W        W64276   4.385  18.907   2.571  0.2433  0.0093  0.2340
    1W        W64277  21.323  13.953   1.479 -0.2340  0.0480 -0.2980
    1W        W64278  15.628   9.672   2.645  0.2510  0.0644 -0.0674
    1W        W64279   7.254   2.770   1.986  0.1250 -0.0477  0.1842
    1W        W64280   3.298   8.030   0.128 -0.0425 -0.0189 -0.1451
    1W        W64281   8.447  17.156   6.531 -0.1439  0.2285 -0.2005
    1W        W64282  20.882  20.018   8.720  0.2124 -0.4748  0.0046
    1W        W64283  14.930  16.818   9.430 -0.3100  0.2230  0.4562
    1W        W64284  29.395   3.091   8.225  0.2400  0.0728 -0.0439
    1W        W64285  28.235  28.414   8.212  0.0992 -0.2716  0.4233
    1W        W64286  28.610   9.777   7.317 -0.2347 -0.0062 -0.1876
    1W        W64287  24.253  14.682   0.738  0.0031 -0.2262 -0.4548
    1W        W64288  11.836  19.773   8.485 -0.3080  0.3000 -0.2021
    1W        W64289  28.094   3.584   0.234 -0.1627 -0.3982 -0.1440
    1W        W64290  21.946   0.696   8.188 -0.0463  0.0136 -0.0740
    1W        W64291  28.095   6.497   9.476  0.0630  0.1153 -0.0788
    1W        W64292  12.675  21.930   1.691  0.0124 -0.1478  0.2942
    1W        W64293  28.325  14.331   2.684  0.0454 -0.2468  0.0955
    1W        W64294  13.946   4.709   1.402  0.0727  0.3610 -0.0202
    1W        W64295  29.652  10.101   1.787  0.0527 -0.1412 -0.2842
    1W        W64296  15.045  24.236   0.711 -0.1197 -0.2968 -0.0969
    1W        W64297  25.416   5.710   8.024 -0.0685 -0.1419  0.3548
    1W        W64298   0.411  12.082   8.440  0.2592 -0.0756  0.0196
    1W        W64299   2.720  26.055   7.549 -0.0555 -0.0555 -0.0406
    1W        W64300   6.374  22.205   9.359 -0.0299 -0.1848 -0.2026
    1W        W64301  27.263  15.454   3.111 -0.0865 -0.3228 -0.1106
    1W        W64302   1.622  20.215   8.552  0.0025 -0.3320  0.1854
    1W        W64303  21.472  18.473   1.633 -0.2028  0.2129 -0.0179
    1W        W64304  23.599   5.287   7.532  0.0842  0.0746 -0.0706
    1W        W64305  14.633  23.777   0.947  0.2916 -0.0032 -0.1656
    1W        W64306  26.858  13.306   2.432  0.0373  0.1477  0.2538
    1W        W64307   3.891  18.847   0.682  0.0818  0.0150 -0.1501
    1W        W64308  22.820   5.084   8.092  0.0679 -0.0310  0.0684
    1W        W64309   7.675  20.799   8.069  0.4381  0.0229 -0.0649
    1W        W64310  20.929  12.806   1.236 -0.0950 -0.3262  0.0574
    1W        W64311  10.402   3.438   7.010 -0.0865  0.1908  0.0087
    1W        W64312  29.646  16.429   0.507  0.2630 -0.1126 -0.0295
    1W        W64313   9.834  19.477   6.716 -0.0022  0.3022  0.3769
    1W        W64314  26.926   9.924   1.403  0.0420  0.0267  0.1810
    1W        W64315  27.129  13.701   2.371 -0.2100  0.0545  0.1737
    1W        W64316  15.260  11.179   1.893  0.0913  0.1255 -0.2136
    1W        W64317   3.845   2.212   9.453 -0.3110 -0.1234 -0.1795
    1W        W64318   2.131  14.691   7.518  0.4510  0.0301  0.0236
    1W        W64319   4.067  27.680   9.520 -0.1441 -0.2194 -0.2884
    1W        W64320   6.293  21.565   1.053  0.0447 -0.2472  0.0297
    1W        W64321   9.488  20.030   8.376 -0.1024  0.0699  0.0470
    1W        W64322  20.245  25.663   1.169 -0.0661 -0.3644 -0.0159
    1W        W64323  12.824   9.007   7.789  0.1183  0.2537  0.2765
    1W        W64324  22.398  15.399   2.003 -0.2261  0.1499 -0.0081
    1W        W64325  28.758  23.179   1.938  0.1410  0.1117 -0.0034
    1W        W64326  16.919  13.655   2.062  0.1910 -0.1273 -0.1029
    1W        W64327  16.261  27.444   3.066 -0.1392 -0.1099  0.0346
    1W        W64328   9.537  26.597   1.437  0.0130  0.1087 -0.3126
    1W        W64329  17.537   4.221   9.357  0.1901 -0.3211 -0.0061
    1W        W64330  13.878   9.530   2.518  0.0537 -0.2478 -0.4144
    1W        W64331  10.460  23.660   6.577  0.3207  0.0624 -0.0868
    1W        W64332  28.738   1.817   0.231  0.3644  0.1422  0.1188
    1W        W64333  20.285  10.984   0.347  0.1770  0.0117 -0.0339
    1W        W64334  26.769   8.615   8.471 -0.1544  0.0986 -0.1805
    1W        W64335  12.028  11.987   6.725  0.2052 -0.1557 -0.0445
    1W        W64336  29.609   1.934   2.655  0.0941 -0.1870 -0.3848
    1W        W64337   3.468   4.002   0.678  0.3871 -0.1026  0.1364
    1W        W64338   7.526   6.757   7.253 -0.0924 -0.0609 -0.0360
    1W        W64339   0.047  18.947   7.871  0.0455 -0.6013  0.0375
    1W        W64340  10.517  29.814   0.213 -0.0400 -0.3312  0.1378
    1W        W64341  24.180  29.709   9.184  0.0059 -0.3103 -0.0463
    1W        W64342   6.620   8.204   9.232 -0.1863  0.0840  0.1267
    1W        W64343   2.948   6.208   8.929 -0.0577 -0.2812  0.2060
    1W        W64344   2.497  24.558   9.095 -0.3622 -0.2834  0.0335
    1W        W64345   2.379  21.399   2.340 -0.1676 -0.0278  0.1265
    1W        W64346  16.712  23.011   6.819 -0.0981  0.0973  0.1888
    1W        W64347   3.993  10.785   7.073  0.3668  0.0776 -0.0010
    1W        W64348   3.445  16.258   8.040  0.1069  0.1002 -0.4323
    1W        W64349  17.517  25.542   8.203 -0.0365 -0.2330 -0.0873
    1W        W64350  14.564   5.777   8.456  0.1917  0.0694  0.1290
    1W        W64351  14.589  15.404   1.662  0.0325  0.2868  0.1026
    1W        W64352   7.270   0.072   9.346  0.2571 -0.4029  0.1668
    1W        W64353  15.739   4.178   8.096  0.1152  0.0592  0.0762
    1W        W64354   1.498  12.563   7.105  0.0089 -0.2789 -0.1123
    1W        W64355   3.590   8.432   7.510  0.3435  0.2492  0.0485
    1W        W64356  12.659  22.387   2.068  0.0342  0.1783  0.3151
    1W        W64357  28.390  15.884   1.169  0.0750 -0.2942 -0.0681
    1W        W64358  23.910  13.051   1.964 -0.0194  0.1872 -0.0737
    1W        W64359   2.934  18.391   0.459  0.0655 -0.0062  0.1960
    1W        W64360  25.212   6.217   3.064 -0.1393  0.0381 -0.0991
    1W        W64361   2.237  22.812   6.920 -0.0330 -0.0375  0.1388
    1W        W64362   6.219   4.876   7.790 -0.0859 -0.0885  0.0890
    1W        W64363  26.114  29.627   1.454 -0.0143  0.2768 -0.1147
    1W        W64364  18.624  11.955   2.286 -0.0207 -0.1776 -0.1083
    1W        W64365  19.542   7.071   2.597  0.0132  0.0256 -0.2063
    1W        W64366  15.933  14.822   9.489  0.0055 -0.0784  0.0265
    1W        W64367   7.510  10.130   6.945 -0.1033 -0.1145 -0.0482
    1W        W64368   8.128  11.878   0.014  0.1880  0.4499 -0.0705
    1W        W64369  29.824   5.197   8.159 -0.0069  0.0634  0.0031
    1W        W64370  21.235  10.713   0.275  0.0446  0.1045  0.1873
    1W        W64371  15.450  26.542   8.365  0.0854  0.0743 -0.0569
    1W        W64372  22.061  28.005   0.646 -0.0042  0.0457  0.0844
    1W        W64373  26.929   0.526   8.405 -0.0759  0.1117 -0.2002
    1W        W64374  21.253   4.166   2.817  0.1136  0.0761 -0.0062
    1W        W64375   5.890  24.515   7.296  0.0799 -0.1787 -0.0438
    1W        W64376  22.012   1.846   1.486  0.0430  0.3940 -0.0976
    1W        W64377   1.452  16.981   7.992 -0.1524 -0.0748  0.0253
    1W        W64378  24.588  17.782   8.355 -0.1506  0.3370  0.3006
    1W        W64379  12.561  20.705   1.421 -0.1319 -0.0094 -0.0020
    1W        W64380   7.657  28.872   1.882 -0.2842  0.1577  0.1452
    1W        W64381  26.386  26.030   7.977  0.0143 -0.2800  0.0441
    1W        W64382  11.907  14.039   7.034  0.2032  0.2055  0.0770
    1W        W64383  13.270  23.511   5.298  0.0757 -0.0581  0.1526
    1W        W64384  24.827  19.093   1.955  0.1191  0.4510 -0.1404
    1W        W64385  29.072  20.981   2.794  0.0854  0.0474  0.5183
    1W        W64386   7.143  15.615   1.355  0.0522  0.0340 -0.2301
    1W        W64387  18.254   1.038   3.224 -0.1027  0.0283  0.1496
    1W        W64388   0.385  27.172   6.835  0.1377  0.0042  0.0074
    1W        W64389  28.769  23.314   2.514 -0.0347 -0.0063 -0.3746
    1W        W64390   5.449   0.422   9.188 -0.3205  0.1578 -0.1188
    1W        W64391  27.990  19.419   8.310  0.0103  0.2687 -0.0982
    1W        W64392  27.680   1.638   2.240  0.1470 -0.0643  0.0464
    1W        W64393   3.192  29.679   8.712  0.0026 -0.3159 -0.0874
    1W        W64394  19.433  18.864   0.624  0.2479 -0.2920  0.0131
    1W        W64395   8.665  14.833   7.433 -0.1812  0.1438  0.1590
    1W        W64396  23.354   1.482   2.327 -0.2455 -0.2916 -0.1856
    1W        W64397  14.598   8.105   3.622 -0.1443  0.2733  0.0916
    1W        W64398  12.353  24.432   7.986  0.0964 -0.1539 -0.0807
    1W        W64399  20.740   7.607   3.028  0.0070  0.1302  0.1739
    1W        W64400   6.197  17.710   2.236  0.1152  0.2924  0.0452
    1W        W64401   3.035  25.094   0.967 -0.1561  0.1523 -0.1138
    1W        W64402   0.629  14.333   6.662 -0.0697 -0.0143 -0.1353
    1W        W64403   9.953  12.038   6.091 -0.1529 -0.3264  0.1828
    1W        W64404   4.874   0.320   1.894 -0.1647  0.1739 -0.1330
    1W        W64405   2.788  26.757   7.048  0.1644  0.5024  0.1206
    1W        W64406  25.047   8.795   8.429  0.1585  0.0356  0.0701
    1W        W64407  19.878   0.318   0.737  0.1136  0.1488  0.1393
    1W        W64408   9.192   7.988   0.596  0.0948 -0.1631  0.1009
    1W        W64409  23.945  19.223   1.520 -0.3216 -0.1115 -0.1001
    1W        W64410  20.576   1.643   3.452  0.0132 -0.0506  0.0179
    1W        W64411   7.745  17.588   0.132 -0.0147  0.0590 -0.0596
    1W        W64412   1.971   6.187   0.015 -0.0662 -0.0346  0.3202
    1W        W64413  25.660  18.352   0.570 -0.2511 -0.0407 -0.0879
    1W        W64414   3.332   4.543   1.476 -0.0360  0.1982 -0.1139
    1W        W64415  23.026   2.764   1.047  0.0056  0.3056 -0.0234
    1W        W64416  26.899   0.150   7.639  0.1965 -0.3423 -0.0211
    1W        W64417   9.521   7.803   8.143 -0.1411  0.2554 -0.0289
    1W        W64418  22.916  24.231   0.718  0.0043  0.2767  0.0145
    1W        W64419   7.687  24.448   1.496  0.2410  0.1324  0.1020
    1W        W64420  11.771  21.448   6.317 -0.2453 -0.3646  0.0632
    1W        W64421   8.097  15.528   8.456  0.0849  0.0950  0.0605
    1W        W64422  10.361   2.524   8.585 -0.1508  0.1726 -0.1518
    1W        W64423  22.706   1.388   1.132 -0.1701  0.0534 -0.2701
    1W        W64424  23.835   4.151   0.453 -0.1076  0.3331  0.2404
    1W        W64425  11.094  16.092   2.010 -0.4503 -0.0467 -0.0113
    1W        W64426  27.574  29.347   1.712  0.1345  0.1870  0.0495
    1W        W64427  29.248  18.603   1.849 -0.2295 -0.0315  0.2662
    1W        W64428  17.645  23.639   8.356 -0.2471 -0.1979 -0.1148
    1W        W64429  28.359  10.634   7.608  0.1789  0.0299 -0.0317
    1W        W64430  17.188  12.505   9.274  0.0345 -0.1506 -0.0927
    1W        W64431   4.240  13.468   0.674 -0.2545  0.0760  0.1496
    1W        W64432   7.450   0.512   1.024 -0.3244  0.0278 -0.2041
    1W        W64433   0.137   6.714   2.083 -0.3076 -0.0182  0.0829
    1W        W64434  27.781  20.320   8.324  0.1852 -0.0146 -0.1162
    1W        W64435  22.663   6.665   2.509  0.1494 -0.2980 -0.1094
    1W        W64436  20.440   5.455   2.203 -0.0682  0.0022 -0.1159
    1W        W64437  19.671   7.651   9.266 -0.0842 -0.0675 -0.0736
    1W        W64438  20.281  14.884   8.302 -0.0950  0.1520 -0.3304
    1W        W64439   0.660  29.200   1.453  0.2151 -0.0590  0.0629
    1W        W64440   3.897   6.278   8.754  0.0771 -0.0779  0.1266
    1W        W64441  19.324   2.014   8.965 -0.2349  0.2098 -0.0078
    1W        W64442  27.350  28.480   8.458  0.1137 -0.2406  0.0355
    1W        W64443  29.446   6.180   8.980 -0.0089  0.0211 -0.2450
    1W        W64444  14.634   6.923   4.221 -0.0606 -0.2389  0.3365
    1W        W64445   7.059   3.417   1.073 -0.2615  0.0405 -0.0994
    1W        W64446  12.042  28.414   7.634  0.1099 -0.2157 -0.0590
    1W        W64447   3.243  14.673   1.597 -0.3414 -0.0537  0.1367
    1W        W64448  29.320   6.176   7.221  0.0820  0.1239  0.1122
    1W        W64449  12.717   9.105   0.132  0.0464  0.1342 -0.4435
    1W        W64450   3.005  29.556   7.678 -0.0566 -0.2986 -0.1344
    1W        W64451  29.572   8.138   2.528  0.3941 -0.3929  0.1732
    1W        W64452   9.696  20.638   0.579 -0.1393 -0.1562  0.1664
    1W        W64453  13.829   1.496   7.528 -0.0586  0.2323 -0.2362
    1W        W64454   2.599   9.891   9.025  0.0084 -0.2113 -0.1148
    1W        W64455   4.651  19.867   7.379 -0.0142  0.2646  0.0937
    1W        W64456  20.072  23.148   2.159  0.1995 -0.1193 -0.1809
    1W        W64457   9.756   1.782   8.680 -0.0462 -0.1815  0.0972
    1W        W64458  28.363  13.648   8.211 -0.0816  0.1813  0.1408
    1W        W64459   5.432   5.747   1.588 -0.0003  0.2524 -0.1303
    1W        W64460  14.752   5.867   1.465 -0.1355  0.1814 -0.2985
    1W        W64461  28.664  22.430   1.901  0.0399 -0.3689 -0.2261
    1W        W64462  17.974   2.450   2.803 -0.0231 -0.0064 -0.3387
    1W        W64463  12.960  22.112   9.412  0.1114 -0.2479 -0.0129
    1W        W64464  24.961  22.953   9.278 -0.2493 -0.1906 -0.0482
    1W        W64465  16.866   8.903   8.168 -0.0461 -0.2001  0.0615
    1W        W64466  19.283  17.821   9.035 -0.0116  0.1424  0.0748
    1W        W64467   4.137  10.522   6.658  0.2276 -0.3423 -0.0041
    1W        W64468   6.071  27.523   0.013  0.0879 -0.2636 -0.0597
    1W        W64469  18.855  20.821   9.374  0.1117  0.1324  0.0809
    1W        W64470  20.837  15.738   8.710  0.1665  0.4933 -0.3032
    1W        W64471   0.165  18.397   8.242 -0.0189 -0.0746 -0.1357
    1W        W64472   7.110  13.084   0.577  0.0040  0.0077 -0.0529
    1W        W64473  18.280  17.799   9.438 -0.1956  0.0225 -0.3236
    1W        W64474   3.585  20.040   8.849 -0.0571 -0.2253  0.2720
    1W        W64475  16.241  18.379   7.753  0.2430 -0.0794  0.2698
    1W        W64476   0.294  13.265   1.245 -0.1558  0.0212  0.0351
    1W        W64477   3.012  25.399   6.074  0.6516 -0.2262 -0.0473
    1W        W64478  26.475  24.292   2.252  0.1247 -0.0277  0.0002
    1W        W64479   3.160  28.805   0.941 -0.2443 -0.1381 -0.0734
    1W        W64480  27.974   2.232   9.208 -0.0619  0.1239 -0.2362
    1W        W64481  13.118  20.133   1.340  0.3111 -0.5569  0.2329
    1W        W64482  19.974   0.699   8.091 -0.0134 -0.0308 -0.1998
    1W        W64483  12.484  24.498   6.076 -0.3188  0.2262 -0.0412
    1W        W64484  15.437  27.515   8.859  0.3218  0.0538 -0.0873
    1W        W64485  28.431  27.174   1.604  0.2354  0.2989  0.3418
    1W        W64486   7.073  18.221   6.912 -0.1657 -0.1733 -0.0716
    1W        W64487  13.274   0.385   2.807 -0.1111 -0.2129 -0.0421
    1W        W64488  12.740  14.380   1.436  0.1074 -0.0416  0.0621
    1W        W64489  16.723  28.934   0.549 -0.1034  0.2249  0.0520
    1W        W64490   4.479   1.518   0.808  0.0945 -0.0310  0.1150
    1W        W64491   6.035  17.747   2.700 -0.0605  0.1849 -0.3389
    1W        W64492  22.600  27.987   0.623 -0.1496 -0.1475 -0.0807
    1W        W64493  11.872  17.360   7.151 -0.1627  0.0464  0.0032
    1W        W64494  14.129  24.948   6.874  0.0513  0.1241 -0.0349
    1W        W64495  24.447   7.988   8.311 -0.0562  0.0749  0.0472
    1W        W64496  14.997   3.399   8.906 -0.1350  0.0599  0.2297
    1W        W64497   8.813   0.642   3.344 -0.1753  0.0915 -0.2652
    1W        W64498  14.188  25.306   1.851 -0.0127  0.0395  0.1740
    1W        W64499  19.290  22.673   7.916  0.2904 -0.0871  0.2390
    1W        W64500   1.822  15.892   7.991  0.2467  0.0249 -0.0222
    1W        W64501  13.881   3.947   8.265  0.0384 -0.0299  0.1010
    1W        W64502  25.425  29.475   8.391  0.2297 -0.0307  0.2824
    1W        W64503  15.264   6.797   0.337 -0.0250  0.1435  0.1742
    1W        W64504   6.845  23.532   0.013 -0.1614  0.1021  0.0477
    1W        W64505  21.172   4.423   1.411 -0.2456 -0.2774 -0.2147
    1W        W64506  15.075  11.355   7.744  0.2231  0.1455  0.0513
    1W        W64507  22.483  28.166   7.445 -0.0491  0.0791  0.4042
    1W        W64508  10.916  23.513   6.305 -0.1475  0.1068 -0.0636
    1W        W64509  12.987  12.186   8.296  0.0588 -0.0612 -0.0973
    1W        W64510  26.150   7.749   0.651  0.2003  0.2528  0.1255
    1W        W64511   8.604   6.445   0.970  0.1303 -0.1728 -0.0893
    1W        W64512  11.620  26.435   0.283  0.1410  0.1634 -0.0655
    1W        W64513   0.993   3.973   1.223 -0.0487  0.0439  0.0086
    1W        W64514   1.201   4.588   6.350 -0.0076 -0.1430 -0.1527
    1W        W64515   2.438  13.611   6.074  0.0507  0.2716  0.0798
    1W        W64516   0.234   7.885   1.431 -0.0273 -0.0040  0.0638
    1W        W64517   5.745  13.654   1.250  0.0237  0.4663  0.2716
    1W        W64518   1.929   3.876   2.960 -0.3236  0.3528  0.1466
    1W        W64519  19.752  27.393   6.684 -0.6111 -0.2141 -0.2192
    1W        W64520  25.817  26.745   0.995 -0.1379 -0.1093 -0.2841
    1W        W64521   0.363  18.790   8.944 -0.0636 -0.1725  0.0486
    1W        W64522   5.352   1.696   2.456 -0.1378 -0.0783 -0.0905
    1W        W64523  13.557  25.961   1.091  0.0427 -0.2001 -0.1403
    1W        W64524  19.674  15.043   9.036 -0.0185  0.1396 -0.0650
    1W        W64525  19.079  12.132   0.933 -0.0841 -0.3609 -0.0507
    1W        W64526   6.110  16.574   6.865 -0.0606 -0.0140 -0.1708
    1W        W64527  21.605  20.445   0.256 -0.2561  0.0951  0.0568
    1W        W64528  14.632  27.341   0.831  0.1351  0.0902 -0.2772
    1W        W64529   5.349   7.425   1.597 -0.1479  0.4289  0.1972
    1W        W64530   6.716  24.825   9.051 -0.0067  0.0675  0.0470
    1W        W64531  26.957   3.508   7.801  0.2250  0.0592 -0.0609
    1W        W64532   3.121  19.035   7.314  0.0691 -0.2026 -0.1536
    1W        W64533   8.584   2.667   8.972  0.2498  0.2480  0.0095
    1W        W64534   5.626  15.504   1.652 -0.1172 -0.0017  0.0253
    1W        W64535  14.156  11.487   8.623  0.1085  0.0792  0.0310
    1W        W64536   2.460   2.482   2.798 -0.3818  0.3336  0.0900
    1W        W64537   6.326   0.718   6.865 -0.2302 -0.0378 -0.0376
    1W        W64538  23.798  23.278   6.804  0.0925  0.1759 -0.1781
    1W        W64539   9.035   7.080   8.748 -0.1207 -0.2912 -0.0108
    1W        W64540   7.815  18.426   8.885  0.2283 -0.1264 -0.2724
    1W        W64541  14.552  20.486   8.363 -0.0751  0.3827  0.0425
    1W        W64542  16.320  28.384   7.099  0.1506 -0.2199 -0.0411
    1W        W64543   7.004  28.342   0.837 -0.2164  0.1427 -0.0424
    1W        W64544   5.985  14.174   1.971 -0.0875  0.0533 -0.1081
    1W        W64545  26.698   9.103   1.408  0.0166 -0.0067 -0.0742
    1W        W64546  28.811   0.136   7.201  0.1290 -0.1139  0.2337
    1W        W64547  25.337  28.703   2.348 -0.1253 -0.3070  0.1689
    1W        W64548   6.816  12.712   8.498  0.0034 -0.1388  0.0577
    1W        W64549  13.064   9.971   0.120 -0.0248  0.0161 -0.0565
    1W        W64550  13.827   7.332   2.000  0.0348  0.2039  0.1543
    1W        W64551   9.934  23.902   5.779 -0.2072 -0.0440 -0.0588
    1W        W64552  23.416  27.781   9.056  0.0548 -0.1935  0.1655
    1W        W64553  26.873  10.069   7.535 -0.0146  0.2067  0.0452
    1W        W64554  14.267  18.108   8.684 -0.0447 -0.2715  0.3094
    1W        W64555  20.720   5.571   3.615  0.0035  0.2519  0.2439
    1W        W64556   7.270  21.780   1.262 -0.1244 -0.0399  0.0971
    1W        W64557  12.414  21.022   0.524 -0.1753 -0.1144 -0.2895
    1W        W64558  24.183   7.242   2.912  0.0028 -0.1082  0.0319
    1W        W64559   2.776   3.273   0.366  0.0959  0.3210 -0.1791
    1W        W64560   7.866  27.688   6.511 -0.0856  0.3759 -0.1496
    1W        W64561   0.784  21.836   1.070 -0.1982 -0.0682  0.0373
    1W        W64562  19.365  27.116   7.335 -0.0758 -0.0778 -0.3358
    1W        W64563  24.341  23.858   8.283 -0.0853 -0.1103  0.2887
    1W        W64564  26.206  17.548   0.270  0.0538  0.3484  0.0584
    1W        W64565  16.116  15.928   2.561  0.0783 -0.0352  0.3439
    1W        W64566  20.578   2.348   2.698 -0.0750  0.0437 -0.4301
    1W        W64567   8.540   6.865   1.745 -0.0752  0.1845  0.0401
    1W        W64568  13.893  21.740   0.774  0.1248 -0.0856  0.1563
    1W        W64569  23.526   0.891   3.175 -0.2199  0.2506 -0.2447
    1W        W64570  22.133  15.137   6.946 -0.1895  0.0539 -0.0451
    1W        W64571   1.291  15.633   2.551 -0.0127  0.2033 -0.0579
    1W        W64572  12.871  12.547   1.857  0.2077 -0.2191  0.0889
    1W        W64573  11.009   9.005   1.013 -0.0851  0.0195 -0.2575
    1W        W64574  17.844  21.635   0.842 -0.0641 -0.0597 -0.1035
    1W        W64575   7.858  26.973   1.178  0.1826  0.1059  0.2066
    1W        W64576  16.351  27.996   3.100  0.5164 -0.2443 -0.1625
    1W        W64577   0.847   7.908   0.577  0.5013 -0.1864 -0.0772
    1W        W64578   8.049  12.695   0.608 -0.0976 -0.2609 -0.0514
    1W        W64579   9.532  27.482   8.221  0.0156  0.1185 -0.0936
    1W        W64580  26.071  10.263   2.347  0.1608 -0.1045 -0.2314
    1W        W64581   4.224  28.017   6.222 -0.0333  0.0651 -0.2423
    1W        W64582  26.669   4.062   9.524 -0.1563 -0.0776  0.0081
    1W        W64583  14.951  20.138   9.051 -0.1619  0.0465  0.3337
    1W        W64584  18.219   6.224   3.383  0.0786  0.0023 -0.1183
    1W        W64585  17.503  19.150   7.668 -0.2216  0.2436 -0.5463
    1W        W64586  29.343  28.617   1.261  0.0194 -0.1286 -0.1498
    1W        W64587   9.956  14.392   7.278 -0.0899  0.2625 -0.2675
    1W        W64588   2.432  12.270   9.124 -0.1349 -0.0883  0.2711
    1W        W64589  29.663   4.356   0.615 -0.0066 -0.0772 -0.4618
    1W        W64590   2.166  20.393   8.438  0.3777 -0.3742  0.1258
    1W        W64591  12.113   9.560   7.571  0.0327  0.0688  0.2666
    1W        W64592   4.255  17.129   6.497 -0.1664 -0.1596 -0.3674
    1W        W64593  13.403   0.211   9.049  0.2446  0.0943  0.0562
    1W        W64594  17.734  28.518   0.418  0.1980 -0.1868  0.0300
    1W        W64595  11.772  16.613   9.417  0.1214 -0.0778  0.0597
    1W        W64596  10.677  16.093   6.402  0.1047  0.6341 -0.0134
    1W        W64597  18.517   3.308   0.211  0.3116  0.2171 -0.0129
    1W        W64598  22.293  10.004   0.187 -0.0167 -0.0389 -0.0610
    1W        W64599   3.846  14.193   1.071 -0.0854  0.1163 -0.1545
    1W        W64600   8.024  19.950   1.013  0.0501 -0.1966 -0.4348
    1W        W64601  22.211  11.479   1.324  0.1242  0.1623 -0.2542
    1W        W64602  24.833  19.301   2.873 -0.2934  0.2482 -0.0953
    1W        W64603   7.176  27.059   8.088 -0.2346  0.0882 -0.0604
    1W        W64604   7.879   6.005   6.753  0.1105  0.1446  0.0816
    1W        W64605   9.761  14.646   0.999 -0.2311  0.1339 -0.3180
    1W        W64606  25.078   9.958   0.357 -0.0720 -0.2023 -0.0365
    1W        W64607  12.561   9.797   7.455 -0.3249  0.2203 -0.1167
    1W        W64608   0.261  11.105   7.715  0.0052 -0.3200 -0.0571
    1W        W64609  14.521  18.032   7.547  0.0679 -0.0025 -0.1778
    1W        W64610   5.107  23.288   8.253 -0.2718 -0.2146  0.1575
    1W        W64611  28.095   1.614   7.924  0.0121  0.0237 -0.2032
    1W        W64612   3.672   0.857   9.322 -0.0545  0.0878 -0.0908
    1W        W64613   5.176   2.788   2.107 -0.1215 -0.0846 -0.1641
    1W        W64614  10.183  12.186   3.194  0.1702  0.0518 -0.0002
    1W        W64615   8.047  11.512   8.632 -0.0478  0.3059 -0.0402
    1W        W64616   6.621  15.455   1.945  0.0424 -0.1335 -0.1712
    1W        W64617   2.309  19.610   6.383 -0.1189 -0.2092  0.1363
    1W        W64618  22.685  16.274   8.292  0.0377  0.0328  0.4532
    1W        W64619  13.349   8.619   0.497  0.1444  0.1953 -0.0629
    1W        W64620   1.024   2.429   9.403 -0.2093 -0.0309 -0.0243
    1W        W64621  27.597  24.268   8.641  0.1357  0.1154 -0.2567
    1W        W64622  24.421   7.805   2.120  0.1558 -0.2934 -0.0068
    1W        W64623   0.228  27.072   2.178 -0.0687  0.0982 -0.0766
    1W        W64624   0.838   4.935   2.867 -0.0447  0.2028 -0.1073
    1W        W64625  21.342  23.874   1.982  0.2105  0.0696  0.1142
    1W        W64626  13.131  27.627   9.515  0.1061 -0.2090 -0.0190
    1W        W64627  18.609  11.364   2.451 -0.5115 -0.1097 -0.0109
    1W        W64628   7.542   7.846   8.265 -0.2828 -0.2271 -0.0161
    1W        W64629  27.880   3.708   1.374  0.0582  0.0056  0.0309
    1W        W64630  20.068  12.092   0.802 -0.0390 -0.0260 -0.3755
    1W        W64631   9.735  28.359   6.989  0.2918 -0.0092 -0.0538
    1W        W64632  28.900  17.675   6.719 -0.0652  0.2679  0.0642
    1W        W64633  16.583   9.645   8.983  0.0659 -0.0258 -0.0072
    1W        W64634   8.790  12.440   9.398  0.0593 -0.2571 -0.1108
    1W        W64635   2.209  27.828   5.528 -0.0202  0.1987  0.3341
    1W        W64636  21.705   2.060   2.410 -0.1318  0.1939  0.1218
    1W        W64637   6.998  15.177   0.245  0.0456 -0.2009 -0.2235
    1W        W64638  10.857  17.627   1.987  0.1111 -0.5135 -0.1564
    1W        W64639   5.259  17.807   2.189 -0.1405  0.0986  0.2591
    1W        W64640  24.884   8.296   1.010  0.3831  0.0501  0.2435
    1W        W64641   8.783  18.319   8.754  0.1423  0.1410  0.0161
    1W        W64642  13.081  28.829   7.502 -0.0614  0.0787 -0.1188
    1W        W64643  13.613  24.367   0.644  0.2403 -0.1393 -0.0816
    1W        W64644  19.218  29.269   9.018 -0.0366 -0.3497 -0.3745
    1W        W64645  12.132  20.716   8.934  0.4183 -0.2410 -0.0660
    1W        W64646  20.188  24.884   2.283  0.1805  0.2942 -0.1027
    1W        W64647  13.286  28.524   2.843  0.1616  0.2904  0.2458
    1W        W64648  17.566  11.265   0.211 -0.0632  0.0537  0.1053
    1W        W64649  27.932  11.196   2.395  0.0032  0.1974  0.0175
    1W        W64650   0.822  27.791   8.918 -0.0486  0.2037  0.0361
    1W        W64651  29.769   2.131   8.224  0.0008  0.1608  0.1758
    1W        W64652   3.494   3.908   7.394  0.1263  0.1335  0.2018
    1W        W64653  19.499   0.331   0.196  0.1862  0.0570 -0.2496
    1W        W64654   3.649   2.374   6.859  0.0132  0.1276  0.0120
    1W        W64655   3.870   8.303   1.978 -0.1426  0.1007  0.0812
    1W        W64656  29.314  26.632   0.413  0.0991  0.1388  0.0823
    1W        W64657   7.291   9.896   6.535 -0.0347  0.0001  0.2428
    1W        W64658   4.765  28.205   0.834 -0.3035  0.1318  0.5349
    1W        W64659  17.044  24.931   1.461 -0.3178  0.0400 -0.1670
    1W        W64660  24.114   5.962   3.463 -0.1174  0.1639 -0.0173
    1W        W64661   7.688   5.699   2.502  0.1482 -0.1723  0.1683
    1W        W64662  23.508  10.668   8.829 -0.1392 -0.1120  0.1195
    1W        W64663   5.989  15.388   9.011  0.1597  0.0253 -0.0720
    1W        W64664  19.939  17.720   0.327  0.2593 -0.4157  0.1394
    1W        W64665  13.200  13.704   1.877  0.1039 -0.0834  0.3456
    1W        W64666  19.998  27.721   1.030  0.1438 -0.0519 -0.2265
    1W        W64667  15.420   4.129   8.586  0.0843 -0.1345  0.0374
    1W        W64668  14.119  25.672   9.268  0.1329  0.1817  0.4773
    1W        W64669   1.810  26.278   0.751  0.2389  0.1395  0.0782
    1W        W64670   5.673  17.731   0.718 -0.0653 -0.3574 -0.0262
    1W        W64671  21.395  10.690   1.730 -0.1220  0.1151 -0.1569
    1W        W64672   1.997   6.049   2.225 -0.0953  0.0642  0.1670
    1W        W64673  13.952   2.865   0.359 -0.1109  0.1866  0.2563
    1W        W64674  28.759  14.244   1.940  0.0116  0.0759  0.2960
    1W        W64675  29.053  14.246   7.832  0.0853 -0.0600 -0.3728
    1W        W64676   6.210  24.726   7.650 -0.2367 -0.0490 -0.1306
    1W        W64677  24.893  10.978   7.726  0.1755  0.1576 -0.1473
    1W        W64678  18.147   6.919   3.599  0.0291  0.1208 -0.3203
    1W        W64679  15.188  28.856   0.793 -0.3002 -0.0969 -0.2805
    1W        W64680  12.738  22.780   2.330  0.1202 -0.0171 -0.0262
    1W        W64681  11.479  23.373   7.897  0.2541 -0.0222 -0.0805
    1W        W64682  14.764  13.561   7.396  0.2153  0.0670 -0.3761
    1W        W64683  12.192  28.085   9.295 -0.1964 -0.3199  0.2551
    1W        W64684  24.514   9.514   9.301 -0.0034  0.3704 -0.0545
    1W        W64685  24.146  20.228   1.650 -0.0695  0.1174  0.1401
    1W        W64686   5.335   9.100   8.808  0.1852  0.3615  0.2339
    1W        W64687  24.206   1.428   8.266  0.0665  0.3564  0.1492
    1W        W64688  19.135   6.592   3.239  0.1334 -0.0432 -0.0776
    1W        W64689   8.982  22.325   6.009  0.2516  0.1272 -0.0106
    1W        W64690  18.478  15.606   6.268  0.1590  0.0733  0.1847
    1W        W64691   1.836   6.417   1.857  0.2495  0.0050 -0.1199
    1W        W64692  15.853  12.942   7.724  0.2184 -0.3457 -0.0247
    1W        W64693  21.001   6.332   2.909  0.0078 -0.2350  0.0526
    1W        W64694  24.157  10.205   1.171 -0.1433 -0.2534 -0.4568
    1W        W64695   3.069   1.388   0.677  0.2424  0.2037  0.0069
    1W        W64696  17.089   1.119   0.903 -0.1182  0.0389 -0.1665
    1W        W64697  26.874   2.271   7.240  0.4406 -0.0570 -0.0455
    1W        W64698  11.265  10.922   9.141  0.1113  0.1934 -0.2500
    1W        W64699  15.298  22.329   9.270  0.1200  0.0902  0.1219
    1W        W64700  11.795  22.490   7.924 -0.0720 -0.4714 -0.0848
    1W        W64701  18.601   4.486   1.396  0.0677 -0.0380  0.0996
    1W        W64702  16.677  10.605   8.156  0.1075 -0.1064 -0.0239
    1W        W64703   4.490   0.723   5.499 -0.1301  0.0340  0.2916
    1W        W64704  21.080  16.482   0.568 -0.0152 -0.2313 -0.0966
    1W        W64705  21.888  12.368   0.235  0.1449 -0.0975  0.0308
    1W        W64706  13.635  12.036   7.204 -0.4532  0.0880  0.1581
    1W        W64707  29.560  25.053   6.751  0.3388 -0.1017  0.0363
    1W        W64708   3.116   6.497   7.120  0.1911 -0.1806  0.1497
    1W        W64709   5.992  16.658   1.039 -0.1918  0.2273  0.2330
    1W        W64710  20.164  28.000   0.692 -0.0259  0.1594 -0.3891
    1W        W64711  23.184  12.492   6.857 -0.1896  0.0612  0.1279
    1W        W64712  28.490  22.516   8.198 -0.0659  0.1990 -0.3371
    1W        W64713   8.730  14.817   0.879  0.0325  0.1255  0.3190
    1W        W64714   0.429   7.492   8.671  0.0476 -0.0546  0.2247
    1W        W64715   5.633  20.380   8.371 -0.0583  0.0165  0.4362
    1W        W64716   1.889  20.886   2.184 -0.1282  0.0190  0.1317
    1W        W64717   3.377  13.727   9.135 -0.3941  0.0600  0.0234
    1W        W64718   1.869   1.626   8.897 -0.0400  0.1434 -0.3006
    1W        W64719  27.374  28.306   6.789  0.0805  0.0712 -0.0213
    1W        W64720   4.671  10.561   2.211  0.0496 -0.1063  0.1627
    1W        W64721  23.754  15.442   2.370  0.3477 -0.1872  0.0218
    1W        W64722  10.621  14.092   1.653  0.1415 -0.1246 -0.1495
    1W        W64723   5.292  15.133   1.384  0.2682 -0.0790  0.2507
    1W        W64724   3.589  12.767   7.454  0.2314  0.2570 -0.0075
    1W        W64725  27.175  28.450   1.118  0.0569 -0.0006 -0.1806
    1W        W64726   8.570  21.170   2.070  0.3292  0.2980 -0.2867
    1W        W64727  10.587  13.665   1.361 -0.1766 -0.0841 -0.0548
    1W        W64728  12.262  19.663   5.483 -0.0249  0.0399  0.2387
    1W        W64729  28.902   2.288   7.169 -0.1044 -0.2919  0.1862
    1W        W64730  11.558  20.576   7.300 -0.3725 -0.1532 -0.3657
    1W        W64731  22.682  19.924   9.049 -0.0997  0.0464 -0.2002
    1W        W64732  21.338  15.930   1.302  0.1619  0.0466  0.1580
    1W        W64733  17.313  22.290   5.902  0.2130 -0.2745  0.0660
    1W        W64734   3.771  24.931   7.622 -0.1157  0.3603  0.1432
    1W        W64735  11.970  16.566   0.291  0.3036  0.0841 -0.2742
    1W        W64736  11.491  11.728   8.167 -0.0148  0.0309 -0.1409
    1W        W64737  28.626  19.970   8.028 -0.2396 -0.0717 -0.2539
    1W        W64738   8.838  27.299   0.100 -0.0085 -0.4389  0.1651
    1W        W64739  24.315  27.470   7.990  0.0480 -0.3873  0.2845
    1W        W64740   8.438  15.815   0.277  0.2028  0.3138 -0.0655
    1W        W64741  29.697   1.710   2.172  0.1748  0.0682  0.1108
    1W        W64742   2.910   6.839   1.387  0.0215  0.1021 -0.2071
    1W        W64743  22.677  18.248   9.055 -0.1315 -0.0456  0.1384
    1W        W64744  11.963   1.967   0.368  0.1081  0.1138 -0.4921
    1W        W64745  21.324  16.703   0.930  0.2688  0.2318  0.0562
    1W        W64746  21.329   5.867   2.260 -0.0403  0.2773  0.0978
    1W        W64747  22.385  21.888   0.873  0.1486  0.2609 -0.3276
    1W        W64748  19.689  14.414   1.145 -0.0662 -0.0222  0.0317
    1W        W64749  13.156  17.188   9.293  0.1361 -0.0711 -0.3388
    1W        W64750   9.635  18.817   2.366 -0.1255 -0.3665  0.0589
    1W        W64751  23.623  24.020   1.365  0.1803  0.2094  0.0893
    1W        W64752   3.761  12.920   9.493 -0.1290  0.1323  0.2850
    1W        W64753  29.329  21.118   0.714  0.1301 -0.0819  0.0343
    1W        W64754  25.155   9.455   7.705 -0.1014  0.2216  0.1209
    1W        W64755   2.767  13.040   6.777  0.0288 -0.0368  0.1288
    1W        W64756  11.790  19.792   6.911 -0.2688 -0.0127 -0.5215
    1W        W64757  17.304  18.772   1.939 -0.3846 -0.0022  0.0734
    1W        W64758  26.595  14.485   7.198  0.0391  0.2421 -0.0566
    1W        W64759  22.850  23.931   9.368 -0.0207  0.1043  0.0052
    1W        W64760  16.943  11.934   1.275 -0.1215  0.2181  0.3681
    1W        W64761   9.476  20.960   7.597 -0.1964  0.3047  0.1212
    1W        W64762   0.412  11.023   7.154 -0.3046 -0.0557  0.0247
    1W        W64763  15.064   8.483   1.992 -0.0966 -0.2402 -0.2061
    1W        W64764  13.754  26.436   8.882 -0.0277 -0.0980 -0.0065
    1W        W64765  22.963  19.619   1.419  0.1709  0.1491  0.2479
    1W        W64766   5.292  10.007   7.340 -0.4503 -0.2390  0.1205
    1W        W64767   1.173  19.408   2.891  0.1777 -0.0715  0.0820
    1W        W64768   1.252  24.977   1.341  0.0736 -0.0351  0.1898
    1W        W64769   4.251  16.316   1.396 -0.0220 -0.3225  0.1637
    1W        W64770   5.576   4.711   1.010  0.2127  0.1775 -0.3292
    1W        W64771  18.519   8.654   8.051 -0.0808 -0.2304  0.2547
    1W        W64772   7.428  22.748   7.587  0.0177 -0.0785  0.0006
    1W        W64773  11.346  22.534   7.079 -0.1748 -0.0622 -0.1931
    1W        W64774   6.598  14.407   7.339 -0.0470 -0.3211 -0.1015
    1W        W64775  13.446  20.574   8.111 -0.0460  0.2122 -0.2280
    1W        W64776  12.118   7.361   8.944  0.0173 -0.0452  0.0179
    1W        W64777  27.887  20.518   7.915 -0.3099 -0.0797  0.1018
    1W        W64778   9.336  22.665   8.975  0.1298  0.1900  0.0576
    1W        W64779   5.271  19.012   9.188 -0.2488  0.3919 -0.1435
    1W        W64780  26.405  27.191   8.469  0.3208 -0.0856  0.0305
    1W        W64781  10.989  13.232   6.792 -0.1035 -0.2849  0.3896
    1W        W64782  14.519  28.694   7.891  0.0170 -0.2533 -0.0030
    1W        W64783  29.072  22.230   6.889 -0.0705 -0.2570 -0.0642
    1W        W64784  10.198  28.508   8.454  0.0471  0.2816 -0.3289
    1W        W64785  21.435  22.722   7.101 -0.2507  0.1376  0.1974
    1W        W64786   5.134  19.516   8.443 -0.0959 -0.0371 -0.1264
    1W        W64787  22.284  15.301   9.062  0.0673 -0.0381 -0.2140
    1W        W64788  21.268   1.598   0.075  0.1747 -0.4418  0.2058
    1W        W64789  16.378  16.638   0.579 -0.1120 -0.0399  0.0847
    1W        W64790  10.054   1.948   8.264 -0.1241  0.1826 -0.1334
    1W        W64791   9.112   5.438   7.346  0.0673 -0.1146 -0.0385
    1W        W64792   4.169  21.703   7.130  0.2758 -0.1967 -0.0175
    1W        W64793  23.565  20.864   8.178 -0.0212 -0.1540  0.1096
    1W        W64794   7.114  24.094   7.990 -0.1331  0.1530  0.1900
    1W        W64795  28.949  16.083   2.437  0.0802 -0.0952  0.0616
    1W        W64796   4.320   7.320   7.539 -0.2818 -0.1124  0.3026
    1W        W64797   2.126  20.059   0.005  0.5408  0.1028  0.2618
    1W        W64798   5.029  14.742   1.189 -0.1133 -0.0272 -0.0060
    1W        W64799  19.999  10.802   9.506 -0.1341 -0.1721  0.2403
    1W        W64800  12.005   2.255   8.995  0.3174  0.0958 -0.2686
    1W        W64801  16.840   2.155   0.110  0.0325  0.0092  0.2060
    1W        W64802   6.097  25.570   2.747 -0.0631  0.2909  0.0517
    1W        W64803  20.881  13.784   0.285  0.1111  0.1602  0.1850
    1W        W64804  22.716  22.779   8.673  0.1051 -0.0049  0.0782
    1W        W64805  13.905  12.443   1.033 -0.1944  0.2136 -0.0123
    1W        W64806  20.306   0.540   2.418 -0.0812  0.2237  0.1655
    1W        W64807  16.213   6.110   3.093 -0.0848  0.0640 -0.1880
    1W        W64808  12.760  27.704   5.618  0.1510  0.0853  0.1835
    1W        W64809   4.502  13.426   8.951  0.0101  0.0433  0.1413
    1W        W64810  21.848  28.502   1.886 -0.1913 -0.0989 -0.1827
    1W        W64811  15.402   5.455   8.185 -0.1052 -0.0935 -0.1940
    1W        W64812   1.034  26.336   0.310 -0.2258  0.4056  0.0600
    1W        W64813  28.825  19.937   0.703  0.0832 -0.0670  0.0180
    1W        W64814  29.224   3.592   0.978 -0.1364 -0.1575 -0.0139
    1W        W64815  19.501   6.541   8.658 -0.3131 -0.0429 -0.1506
    1W        W64816  28.197   9.442   2.311  0.0316  0.0471  0.0965
    1W        W64817  28.948  10.468   9.439  0.0419  0.3389 -0.3291
    1W        W64818   3.781   0.321   6.389 -0.0340  0.0171  0.1296
    1W        W64819   8.029  12.973   1.715  0.0426  0.3160 -0.1259
    1W        W64820  12.223  14.848   7.535  0.1071  0.0916 -0.0762
    1W        W64821   6.380   8.728   8.540  0.0143  0.0563 -0.1018
    1W        W64822  28.963  18.255   6.953  0.1636 -0.0652  0.1604
    1W        W64823   4.864  17.548   6.904 -0.2061 -0.1259  0.2185
    1W        W64824   4.789  11.997   0.187 -0.1410 -0.1625 -0.0830
    1W        W64825  25.070   1.240   2.513  0.0848 -0.1778 -0.3578
    1W        W64826  17.319  20.424   8.613 -0.2831  0.2110 -0.1601
    1W        W64827  21.147   0.096   8.430  0.5690  0.3100  0.1503
    1W        W64828  24.572  20.790   1.240  0.1814 -0.1475 -0.0703
    1W        W64829   6.738  24.817   0.401  0.3477 -0.1191 -0.0238
    1W        W64830  12.924   4.598   3.011  0.1111  0.2070  0.1124
    1W        W64831   0.175  14.425   1.808 -0.1425 -0.0036 -0.1373
    1W        W64832   3.393  20.501   8.986  0.0691 -0.4168  0.1603
    1W        W64833   3.922   3.071   7.737 -0.1016  0.0626  0.1904
    1W        W64834  10.197  27.055   1.100  0.2225 -0.2161  0.0600
    1W        W64835  10.688  27.594   7.525 -0.0677  0.1950 -0.1828
    1W        W64836  16.755  27.710   2.886 -0.2668  0.1685 -0.0160
    1W        W64837  20.490  22.227   0.443 -0.0270 -0.4548  0.1035
    1W        W64838  22.737  14.398   7.431  0.1981  0.1471 -0.1971
    1W        W64839   9.277   8.764   0.062 -0.3519 -0.1230 -0.5705
    1W        W64840  18.409  14.788   0.273  0.0327  0.1829 -0.0345
    1W        W64841   3.934  20.601   8.800  0.2135 -0.3210 -0.1018
    1W        W64842  10.809  15.315   2.590 -0.1836 -0.1034 -0.0327
    1W        W64843   6.434   3.480   9.290  0.0074 -0.3713  0.0596
    1W        W64844  16.386   8.194   1.949  0.0310 -0.2580  0.1591
    1W        W64845   5.572  20.729   7.885  0.0289  0.2705  0.2008
    1W        W64846   2.120   1.237   7.161 -0.3016 -0.1679  0.2044
    1W        W64847  25.969  25.290   1.950  0.1185  0.2611 -0.0486
    1W        W64848  10.256   3.517   0.419 -0.1613 -0.2775 -0.1491
    1W        W64849  21.193  15.302   9.009 -0.1794  0.0284  0.0215
    1W        W64850   6.062  13.519   2.608 -0.1105  0.0409 -0.0456
    1W        W64851  24.574   6.359   0.981 -0.1242 -0.5001  0.0640
    1W        W64852  19.044  15.689   0.600 -0.1786 -0.4073  0.3542
    1W        W64853   4.297  18.559   0.631  0.1069  0.0535  0.2821
    1W        W64854  28.562  29.527   0.485 -0.1370 -0.2123  0.0421
    1W        W64855   4.057  20.219   9.096 -0.0696 -0.0552 -0.1277
    1W        W64856  20.635  14.636   6.944 -0.0685  0.0245  0.1551
    1W        W64857  19.146  24.890   6.154 -0.0597  0.3997  0.0612
    1W        W64858   3.135  11.913   8.674 -0.1246  0.0840  0.0067
    1W        W64859  27.494  16.169   7.248  0.0285 -0.0213  0.0251
    1W        W64860   9.352  22.811   8.534  0.0807  0.1712 -0.2585
    1W        W64861   0.071  27.481   1.516  0.1933 -0.1195 -0.1634
    1W        W64862   9.843  29.566   7.285  0.4495  0.0730  0.3395
    1W        W64863   7.095  12.780   7.783 -0.1777 -0.0513 -0.1426
    1W        W64864  20.149  14.795   9.188 -0.0902 -0.0538  0.0835
    1W        W64865   5.594   5.080   8.919  0.0081 -0.1011 -0.0896
    1W        W64866  11.928   4.412   1.178 -0.1911 -0.3147 -0.0142
    1W        W64867  27.637   8.080   7.321 -0.0571 -0.2762  0.0574
    1W        W64868  23.407  13.278   1.591  0.1177  0.0352  0.1259
    1W        W64869   3.501  24.602   7.193  0.1136 -0.0747 -0.0769
    1W        W64870   2.898  25.401   7.943 -0.1119 -0.1529 -0.3319
    1W        W64871  15.572   4.225   0.507 -0.0180 -0.1279 -0.2394
    1W        W64872  16.395  19.290   8.712  0.5238  0.0420 -0.1596
    1W        W64873  13.697  22.569   7.070  0.2943 -0.1350 -0.3325
    1W        W64874   6.583  18.777   7.118 -0.4869  0.1471  0.1292
    1W        W64875  19.960   0.644   1.105 -0.2531  0.1882 -0.0217
    1W        W64876  26.992   0.198   6.401 -0.0309  0.2100  0.0386
    1W        W64877  12.217  20.377   1.295 -0.0270 -0.2241  0.0617
    1W        W64878  29.240  23.322   0.606 -0.3178  0.1373 -0.2723
    1W        W64879  21.368  13.366   7.874 -0.0524 -0.0349 -0.2181
    1W        W64880  15.658   5.830   1.284 -0.0139  0.3227  0.2655
    1W        W64881  14.846   0.118   2.725  0.0473 -0.2735 -0.1093
    1W        W64882  24.922  18.283   1.395 -0.0632  0.1589  0.0334
    1W        W64883  18.162  18.748   7.036  0.3205  0.1469 -0.0606
    1W        W64884   5.670  21.697   8.628  0.3329  0.1684  0.1372
    1W        W64885  15.223  16.666   5.625 -0.1162  0.1129  0.0053
    1W        W64886   0.396  14.803   7.544  0.0273  0.1597 -0.3054
    1W        W64887  15.951   4.749   0.105  0.2552 -0.2182 -0.1397
    1W        W64888   9.278  18.720   0.286  0.0826  0.0575 -0.1511
    1W        W64889   0.080  21.635   8.748 -0.2561  0.1393 -0.1326
    1W        W64890  19.443   2.925   0.863  0.0212  0.2176 -0.0301
    1W        W64891  11.944   5.471   1.563 -0.0618 -0.0960  0.2672
    1W        W64892   8.679   5.820   2.082  0.3622  0.0046  0.0860
    1W        W64893   6.258  24.012   0.218 -0.0689  0.1449  0.0248
    1W        W64894  11.650   6.029   8.466 -0.2573  0.2577  0.1431
    1W        W64895   7.478  14.719   1.766 -0.0349 -0.1800  0.1094
    1W        W64896  12.560   7.152   0.274 -0.1611  0.3837 -0.2139
    1W        W64897   2.632   6.067   0.890 -0.0200 -0.1476  0.0610
    1W        W64898  27.248   3.031   2.449 -0.1925 -0.1042  0.4080
    1W        W64899  21.026  11.874   2.338 -0.0331 -0.1470 -0.3549
    1W        W64900  22.292  19.354   8.299 -0.1081 -0.1201  0.0041
    1W        W64901  23.159   6.802   1.765  0.0082 -0.0622  0.2991
    1W        W64902  28.066   0.647   0.154 -0.1744 -0.2130 -0.0893
    1W        W64903  13.238   0.441   6.958  0.0483 -0.2214 -0.0003
    1W        W64904   1.890   2.085   7.933  0.0338 -0.2370 -0.0438
    1W        W64905   6.261  16.490   6.385 -0.1851  0.4020  0.0107
    1W        W64906   3.719  15.557   7.461 -0.2252  0.0424  0.0789
    1W        W64907  29.219  24.144   6.608  0.1034 -0.0129 -0.0926
    1W        W64908  21.307  23.896   2.515  0.1764  0.0426 -0.2719
    1W        W64909  14.401  22.386   1.650  0.0156 -0.3064 -0.1475
    1W        W64910  25.114  11.650   0.773  0.0615  0.1170 -0.1864
    1W        W64911   7.331  10.114   1.745 -0.2772  0.2837 -0.2269
    1W        W64912  23.113  18.073   6.043 -0.2067 -0.0951  0.1071
    1W        W64913  24.889   4.041   8.774  0.0627 -0.1147  0.1571
    1W        W64914   8.402  21.096   0.545  0.0034 -0.0205  0.2411
    1W        W64915  18.008  29.198   2.641  0.1070  0.0588 -0.0920
    1W        W64916   3.471  19.483   2.225  0.5410  0.2489 -0.0797
    1W        W64917  27.688  17.404   3.221 -0.1221 -0.0743 -0.3393
    1W        W64918   7.924  27.135   0.679 -0.1834  0.2316  0.2113
    1W        W64919  20.920  12.213   7.731 -0.4666 -0.0250 -0.3106
    1W        W64920   6.024  26.330   5.852 -0.1487  0.2394  0.3152
    1W        W64921   4.681   8.620   9.463 -0.0616  0.1241  0.0398
    1W        W64922  12.655   0.715   8.914 -0.2550 -0.0429  0.5197
    1W        W64923   5.187  17.799   2.734  0.0373 -0.1155 -0.0608
    1W        W64924  25.287  28.986   1.069 -0.1513 -0.0556 -0.0072
    1W        W64925  29.053  25.713   1.921  0.2264  0.0131 -0.3171
    1W        W64926  18.027  23.779   6.924 -0.1471 -0.0560 -0.0153
    1W        W64927  25.367   5.234   3.662 -0.2258  0.1030 -0.0371
    1W        W64928  24.492  19.788   1.526 -0.2452 -0.0776 -0.1451
    1W        W64929  13.526  23.995   8.914 -0.0439  0.2023  0.0894
    1W        W64930   2.447  19.619   7.549  0.0719  0.3522  0.1758
    1W        W64931   9.791   5.239   9.294  0.0299  0.0076 -0.1053
    1W        W64932  23.559  14.134   8.904 -0.1142  0.1505  0.3197
    1W        W64933  27.410  28.530   7.757  0.2225  0.0277 -0.0184
    1W        W64934   2.262   4.556   0.596  0.2012 -0.2990 -0.2696
    1W        W64935  20.244  21.954   8.675  0.2233 -0.4388 -0.0436
    1W        W64936   8.893   0.101   2.008 -0.1885  0.0980  0.1228
    1W        W64937  28.991  15.892   8.108  0.0669  0.0015 -0.1551
    1W        W64938   6.605  15.222   8.436 -0.3001  0.0454 -0.0490
    1W        W64939  11.512  15.725   2.050 -0.3223 -0.1951 -0.0241
    1W        W64940  20.711  20.083   6.955  0.2358 -0.1913  0.2979
    1W        W64941   7.216  17.194   8.954 -0.3496 -0.1092  0.2673
    1W        W64942  17.048  29.515   7.370 -0.0798 -0.1217 -0.4067
    1W        W64943  26.648   4.473   0.395 -0.1565  0.0377  0.1341
    1W        W64944   3.789   5.445   0.491  0.0488  0.0969 -0.1891
    1W        W64945  18.771  26.526   8.933  0.1776  0.2334  0.3674
    1W        W64946  24.711   6.438   2.936 -0.3078  0.2520 -0.1694
    1W        W64947  19.526  20.922   0.335 -0.1376 -0.2891 -0.0201
    1W        W64948  21.452   0.815   8.091  0.1133  0.0965 -0.1095
    1W        W64949  18.624  20.494   6.499 -0.4322  0.0658 -0.0941
    1W        W64950  27.280   6.558   1.656  0.1474 -0.0095 -0.1675
    1W        W64951  15.327  18.437   0.067 -0.0459 -0.0963  0.0675
    1W        W64952  18.866   7.528   0.735  0.1334  0.0475 -0.1099
    1W        W64953   9.990  28.058   6.651 -0.2607  0.0996  0.1456
    1W        W64954  27.623  19.500   6.592 -0.0420 -0.2379  0.1058
    1W        W64955  23.050   3.171   7.910 -0.0430 -0.2875 -0.0145
    1W        W64956   3.050  27.285   8.811  0.1196  0.0622 -0.2676
    1W        W64957   5.794  13.860   0.325 -0.0540  0.0306  0.0448
    1W        W64958   8.801  12.264   1.119 -0.1469 -0.2892 -0.0940
    1W        W64959   3.953  15.639   0.247  0.0290  0.0786  0.2446
    1W        W64960  28.588  23.805   8.376  0.0241  0.1807 -0.2603
    1W        W64961  17.221  23.893   7.485  0.2178 -0.0824  0.4027
    1W        W64962  10.266   1.936   0.124 -0.0240 -0.3636  0.1835
    1W        W64963  28.574  17.401   7.226 -0.1071  0.1828  0.1939
    1W        W64964  17.189  14.410   9.508  0.1962 -0.0071  0.2889
    1W        W64965  24.267  26.786   8.637 -0.0326 -0.3354 -0.2793
    1W        W64966  26.286  20.902   0.663 -0.2811 -0.1449  0.3612
    1W        W64967  29.293  18.300   7.788 -0.0674  0.2943 -0.0638
    1W        W64968  28.819  21.639   0.740  0.0669  0.0408 -0.0004
    1W        W64969  16.834   6.681   9.481 -0.0434  0.1719 -0.0167
    1W        W64970   1.205  19.249   0.329 -0.2431 -0.0833 -0.0818
    1W        W64971   7.584   2.250   8.080 -0.0494  0.0285 -0.1026
    1W        W64972  28.305  22.971   1.268 -0.2600 -0.3006 -0.2776
    1W        W64973   3.474  20.516   1.468 -0.0236  0.0555  0.4464
    1W        W64974  13.952  27.295   1.243 -0.2206 -0.2081 -0.0890
    1W        W64975   1.037  24.833   0.854  0.0026  0.2702 -0.2215
    1W        W64976   1.466   0.713   9.138  0.3173 -0.1933  0.0078
    1W        W64977  23.994  26.016   2.230  0.0967  0.0308  0.2132
    1W        W64978  13.003  12.844   0.060  0.2955 -0.0087  0.0262
    1W        W64979   7.609   1.098   9.248 -0.0954 -0.0535 -0.0693
    1W        W64980   9.817   0.743   9.269  0.1931  0.2195  0.0341
    1W        W64981  22.918  15.927   8.869 -0.0663 -0.2563 -0.4372
    1W        W64982   1.327   5.897   8.283  0.0310 -0.2600 -0.0915
    1W        W64983  14.104   9.589   8.481 -0.1558  0.0554 -0.0362
    1W        W64984  28.420  24.462   8.694  0.0457 -0.2663  0.1717
    1W        W64985  24.524   5.736   8.351  0.0186  0.2103  0.0134
    1W        W64986  24.513   8.682   9.385  0.2446  0.2343 -0.1979
    1W        W64987  25.020   2.804   9.477  0.1085 -0.2061  0.0821
    1W        W64988   8.432  24.964   6.914 -0.2018 -0.0336 -0.0950
    1W        W64989   6.393   1.971   2.432 -0.3732  0.0359  0.0095
    1W        W64990  10.600  29.562   2.573  0.0951 -0.0215  0.0129
    1W        W64991  29.809   9.626   3.430 -0.0721 -0.1611  0.0741
    1W        W64992  26.332  28.709   0.255  0.0008 -0.0566 -0.3353
    1W        W64993   0.083  23.021   0.137  0.0534  0.0555 -0.0609
    1W        W64994   6.320  17.343   8.503 -0.0935  0.2467 -0.1816
    1W        W64995  19.582  27.228   1.715  0.3313  0.0320 -0.0955
    1W        W64996   0.195  15.980   1.634  0.0733  0.2022  0.3776
    1W        W64997   6.472  11.646   9.093  0.0911  0.0447  0.1031
    1W        W64998   9.384  23.262   6.828 -0.0875  0.1635 -0.1443
    1W        W64999  20.553   7.479   1.002  0.2982  0.0649 -0.0313
    1W        W65000  12.410   8.112   0.995 -0.0542 -0.1089  0.0524
    1W        W65001  28.645  10.123   9.156 -0.4409  0.4419 -0.0466
    1W        W65002   1.618  14.493   7.166 -0.3366  0.1568  0.1552
    1W        W65003  18.127  27.192   2.920  0.0104 -0.0289 -0.0692
    1W        W65004  29.770  29.447   0.899 -0.1353  0.2468  0.1636
    1W        W65005   6.771   4.716   7.643  0.0113  0.2096 -0.4062
    1W        W65006  25.350   8.515   8.151  0.0417 -0.0343  0.0654
    1W        W65007  25.808  18.266   7.468  0.0967  0.1690 -0.0855
    1W        W65008  15.728   4.834   1.051 -0.2198 -0.1135  0.1520
    1W        W65009  18.317  25.230   0.376  0.1612 -0.0126 -0.2548
    1W        W65010  12.872  26.458   7.566  0.0775 -0.0272  0.0863
    1W        W65011  24.067  15.291   1.979 -0.1018 -0.0230  0.2695
    1W        W65012   2.632   2.069   2.630 -0.0675 -0.1212  0.1092
    1W        W65013  14.761  25.695   6.078  0.3464 -0.0941 -0.2426
    1W        W65014   3.045   4.623   2.588 -0.1526  0.0309  0.0592
    1W        W65015   7.416  21.979   6.990  0.0677 -0.0670  0.0420
    1W        W65016  26.120  27.194   1.548  0.2568 -0.3046 -0.1960
    1W        W65017  10.241  11.986   9.223  0.1359  0.1169  0.0796
    1W        W65018  20.806  13.218   0.972 -0.0413  0.2071 -0.0337
    1W        W65019   2.409   5.094   0.897  0.0381 -0.0902 -0.2858
    1W        W65020   3.864  22.220   0.978  0.4726  0.0420  0.0331
    1W        W65021  25.744  18.685   6.563  0.3940 -0.1217  0.4016
    1W        W65022  15.694  13.666   0.470 -0.0632 -0.0276 -0.1194
    1W        W65023  10.043   7.296   0.170 -0.0750 -0.3155  0.1804
    1W        W65024  27.642  17.063   7.547  0.0629 -0.2799 -0.2928
    1W        W65025  18.862  24.427   6.168  0.3457 -0.1214 -0.2424
    1W        W65026   8.086  16.655   0.311  0.3228 -0.0951  0.1677
    1W        W65027   0.976  24.692   6.053 -0.0385  0.0002  0.1988
    1W        W65028  20.674  23.050   6.021  0.1478 -0.0013 -0.1431
    1W        W65029   2.257   3.812   0.670 -0.0272  0.0648 -0.0852
    1W        W65030  13.923   9.142   8.529  0.3645  0.0961 -0.0169
    1W        W65031   4.209   2.826   7.404  0.1395  0.1776  0.2288
    1W        W65032  19.347  29.204   1.897 -0.0334  0.2099 -0.0659
    1W        W65033  18.128   8.772   8.466  0.0373  0.1356  0.2725
    1W        W65034  16.918   0.546   9.130 -0.0094  0.3454 -0.1388
    1W        W65035  17.807  16.333   8.366  0.2929  0.2521  0.0474
    1W        W65036   8.195  22.528   7.010  0.1312  0.1065 -0.1062
    1W        W65037   5.245   7.941   1.294  0.2411  0.0095 -0.1713
    1W        W65038  28.405   7.763   1.872 -0.3796 -0.3825  0.1451
    1W        W65039  24.801   5.295   8.198  0.1254  0.2335  0.0077
    1W        W65040   8.507   9.121   6.132  0.0117  0.0565 -0.1438
    1W        W65041  22.451   4.506   7.642  0.0735  0.1828 -0.0232
    1W        W65042  24.108  20.959   2.230 -0.0101  0.1864  0.1820
    1W        W65043  22.111  22.386   1.792 -0.1599  0.1562 -0.0164
    1W        W65044   8.692  14.004   7.840 -0.0292 -0.1825 -0.1046
    1W        W65045  16.554  18.819   6.267 -0.3968  0.0617 -0.0835
    1W        W65046  10.864   6.599   2.615 -0.1538  0.1861  0.0925
    1W        W65047  18.722  25.280   6.375  0.1537  0.2695 -0.1206
    1W        W65048  25.787   2.596   6.488 -0.3547  0.0398  0.0596
    1W        W65049   0.725  25.635   8.310 -0.2331 -0.0711  0.0087
    1W        W65050   0.899  20.358   7.816 -0.1444 -0.0636 -0.1024
    1W        W65051   1.044  17.277   0.106 -0.0581  0.1387  0.0643
    1W        W65052   4.881   0.827   1.953 -0.0590 -0.0322 -0.1151
    1W        W65053   9.231  24.312   6.211  0.2783 -0.1456 -0.0092
    1W        W65054   1.928  26.182   7.864  0.0747  0.1125  0.0980
    1W        W65055   9.512  20.638   1.522  0.0812 -0.4970 -0.2615
    1W        W65056  21.660   7.508   2.633 -0.1587  0.1886 -0.0264
    1W        W65057   7.070  17.718   9.418  0.1608 -0.0755  0.0004
    1W        W65058  12.705   9.286   2.624  0.0976  0.1612 -0.2057
    1W        W65059   2.805  22.864   1.958 -0.3829  0.1080  0.0985
    1W        W65060  23.853   4.432   2.538  0.0232 -0.0423 -0.2266
    1W        W65061   5.921  19.233   1.427 -0.0657  0.1906 -0.3125
    1W        W65062  22.140  28.628   8.876 -0.1359  0.1601  0.0268
    1W        W65063  28.949   2.379   8.442  0.1462 -0.0860  0.0030
    1W        W65064  19.178  12.475   2.650  0.1815 -0.0368  0.1154
    1W        W65065   6.588  18.755   1.517 -0.0265  0.0139  0.0944
    1W        W65066   7.539   5.087   1.297  0.0637  0.0548 -0.2073
    1W        W65067  18.170  19.767   8.497  0.0285 -0.0918  0.1628
    1W        W65068   2.156   5.181   8.072 -0.2974  0.2656  0.0260
    1W        W65069  10.200  14.878   2.489  0.0644 -0.3368  0.2431
    1W        W65070   6.541   7.797   9.443 -0.3541  0.0054 -0.3514
    1W        W65071   4.018  26.566   5.362  0.1961  0.1297 -0.0758
    1W        W65072  28.739   5.475   0.997  0.2198  0.0525 -0.0030
    1W        W65073  29.380  18.645   1.009  0.1325 -0.1676 -0.0529
    1W        W65074  15.255  29.456   8.060  0.2157  0.0227  0.3243
    1W        W65075  26.465  10.661   8.105  0.3298 -0.2464  0.0092
    1W        W65076   3.161   2.577   1.343 -0.1498 -0.0034  0.2310
    1W        W65077   0.166  27.036   1.670  0.2166 -0.0916 -0.3013
    1W        W65078   6.558  25.610   6.196 -0.0887 -0.0910 -0.0636
    1W        W65079  22.617  17.979   0.752  0.0388  0.1114  0.1630
    1W        W65080  23.110  12.162   7.357 -0.1084 -0.0488  0.1477
    1W        W65081  29.261  28.522   6.201  0.0568 -0.2100 -0.2019
    1W        W65082  27.829   5.857   0.687  0.1522 -0.0875  0.2193
    1W        W65083   9.788  16.157   1.974 -0.0772  0.4144  0.2255
    1W        W65084  12.604   9.294   7.375 -0.2545  0.1771  0.3723
    1W        W65085  18.956   3.642   1.586  0.0538  0.1143 -0.0126
    1W        W65086  10.781  26.771   7.729 -0.1067  0.2887  0.2456
    1W        W65087  22.966  11.476   2.345 -0.1344  0.1822 -0.2519
    1W        W65088  14.279  12.514   7.287 -0.1371 -0.0083 -0.0992
    1W        W65089   3.253  14.236   8.108  0.1517 -0.4003 -0.1010
    1W        W65090  28.575  13.296   1.479 -0.3565 -0.0696 -0.0164
    1W        W65091  24.426   6.828   8.558  0.1550 -0.2490  0.1300
    1W        W65092  11.085  22.109   0.857  0.3516 -0.0507 -0.1173
    1W        W65093  26.150  10.123   0.485 -0.0103  0.0934 -0.0978
    1W        W65094   0.237   1.104   1.327 -0.0145 -0.0908  0.0959
    1W        W65095  12.469  25.752   8.242  0.0580 -0.3324 -0.1010
    1W        W65096  16.747  12.795   2.067  0.0235  0.0339  0.0341
    1W        W65097  25.064  13.037   8.621 -0.1912  0.1915 -0.0493
    1W        W65098   9.876  17.585   8.329 -0.1383  0.0555  0.1681
    1W        W65099  13.567  23.145   1.764 -0.2093 -0.1823 -0.0958
    1W        W65100  21.270  28.487   2.991  0.2223  0.0291  0.1662
    1W        W65101   6.081  18.045   1.053  0.0921  0.0213 -0.1797
    1W        W65102  12.933   7.236   8.247  0.1762  0.2122  0.1952
    1W        W65103  14.417  24.372   1.866  0.1167 -0.0802 -0.0711
    1W        W65104  11.495  21.677   6.699 -0.1213 -0.2765 -0.0133
    1W        W65105  10.665  17.941   6.922  0.2008  0.0001 -0.2747
    1W        W65106   1.928  19.892   6.872 -0.2418 -0.2285 -0.3110
    1W        W65107   5.829  15.286   6.618 -0.0673 -0.2086  0.2468
    1W        W65108  24.269  16.091   1.738  0.1642  0.0711 -0.1625
    1W        W65109   6.351  14.548   2.098  0.0153  0.0653  0.1802
    1W        W65110   4.635  28.432   7.734  0.0793  0.0854 -0.2036
    1W        W65111  13.938   1.025   7.409 -0.0833 -0.0796  0.1133
    1W        W65112   7.582   5.540   1.523  0.1509  0.0359 -0.0991
    1W        W65113   5.013  26.353   7.339  0.0925 -0.1104  0.1537
    1W        W65114  22.753   8.583   8.967 -0.5016  0.1404 -0.0362
    1W        W65115  27.783  27.342   8.340 -0.0578 -0.1776 -0.1237
    1W        W65116  13.674  20.232   6.228  0.0527 -0.1236 -0.3319
    1W        W65117   4.515  11.942   6.235 -0.1740 -0.0168 -0.2219
    1W        W65118   0.568  10.337   1.236 -0.3251  0.2401 -0.0375
    1W        W65119  26.707  21.615   1.057  0.2282  0.0595 -0.1453
    1W        W65120   9.898  28.813   2.253  0.1162 -0.0806 -0.3366
    1W        W65121   5.571  21.051   7.484 -0.0900  0.2348  0.0033
    1W        W65122  15.163  18.949   9.273 -0.0374  0.1326 -0.0907
    1W        W65123  18.971   0.256   0.914  0.1245  0.1187 -0.0785
    1W        W65124  21.359  21.600   5.835  0.1198  0.1739  0.2697
    1W        W65125  27.291  21.895   1.846 -0.1081  0.0160  0.1492
    1W        W65126  26.754   6.817   8.947 -0.0065 -0.2260  0.0864
    1W        W65127  28.194  16.044   2.376 -0.0873 -0.1193 -0.3777
    1W        W65128  26.664  29.821   1.322 -0.0371 -0.0584  0.0578
    1W        W65129  19.844  22.423   8.941 -0.4331 -0.2690 -0.0835
    1W        W65130  28.158   6.878   7.209  0.1412 -0.0111  0.0039
    1W        W65131  27.659   5.960   8.221  0.0477 -0.3896  0.1241
    1W        W65132  16.676   6.296   0.354  0.1398 -0.0153 -0.1531
    1W        W65133  29.572  28.549   7.592  0.1065  0.0915  0.1226
    1W        W65134  25.640  13.035   0.936  0.0870 -0.0536  0.0025
    1W        W65135  20.780  21.917   0.155 -0.0484  0.1974  0.0694
    1W        W65136  25.054  21.358   9.400  0.1355  0.1013  0.1944
    1W        W65137  17.481  10.923   2.036 -0.3072  0.2111 -0.2806
    1W        W65138   8.292   0.077   9.089 -0.1680  0.1876  0.1349
    1W        W65139  18.241  23.351   6.693  0.0351  0.1150 -0.0724
    1W        W65140  13.759   8.684   0.936 -0.0726  0.1086 -0.0078
    1W        W65141  18.837  19.750   8.880 -0.1409  0.0005 -0.0497
    1W        W65142   3.712   4.470   8.854  0.2343  0.6706 -0.3697
    1W        W65143  21.909  11.773   0.367  0.1214  0.0760  0.1300
    1W        W65144  15.091   9.132   7.875 -0.0432 -0.0960 -0.0929
    1W        W65145  20.273  22.127   1.946  0.3966 -0.2815 -0.1511
    1W        W65146   0.311   7.139   0.250  0.0211 -0.2316 -0.0392
    1W        W65147   2.736   2.431   0.457  0.1632 -0.1429 -0.1853
    1W        W65148  21.462  24.800   6.993  0.2543 -0.0292  0.1849
    1W        W65149  20.682  18.253   6.656  0.0610 -0.3237  0.3198
    1W        W65150   9.623   4.933   8.447  0.2805 -0.0483 -0.1558
    1W        W65151   9.903  28.702   8.787 -0.0153  0.0511  0.0467
    1W        W65152  13.377  13.213   7.775 -0.3201  0.4806  0.1461
    1W        W65153  15.672   0.707   4.233  0.0318  0.1627 -0.0629
    1W        W65154  17.369  18.962   5.297  0.0828  0.1713  0.1425
    1W        W65155   8.563   7.615   2.092 -0.1706  0.1013  0.2347
    1W        W65156   9.561   1.047   8.371  0.1162 -0.3376  0.0215
    1W        W65157  26.353  21.384   8.522  0.0055 -0.1163  0.2718
    1W        W65158   9.386   5.757   8.391 -0.1868  0.0735  0.0305
    1W        W65159  12.969  22.655   0.967  0.0966 -0.0096  0.2427
    1W        W65160  25.073  19.788   0.791 -0.0280 -0.2198 -0.1400
    1W        W65161  25.319   7.911   0.882 -0.2666 -0.2630 -0.2256
    1W        W65162   0.367  25.750   0.911  0.1233 -0.0761 -0.2129
    1W        W65163   2.869  22.131   2.754  0.0221  0.1748  0.0537
    1W        W65164  23.145  26.117   8.429 -0.0688  0.1462  0.0577
    1W        W65165   0.288  29.307   0.579  0.1556 -0.0202  0.1485
    1W        W65166  18.057  10.878   1.922 -0.1961  0.1452  0.2436
    1W        W65167  23.068   5.765   4.033  0.2396 -0.2467 -0.1772
    1W        W65168   7.466  17.273   1.581  0.2584  0.0353 -0.0554
    1W        W65169  23.839  24.574   7.650 -0.0729  0.3860  0.0028
    1W        W65170  17.615   0.692   2.771  0.1091  0.3035 -0.0247
    1W        W65171  24.635  13.292   8.707  0.2159 -0.4709 -0.0449
    1W        W65172   1.068  24.068   8.707 -0.1329  0.3865  0.1688
    1W        W65173  22.343   0.187   0.322  0.0795  0.0215 -0.1419
    1W        W65174  23.939   3.045   2.507  0.3344  0.0995  0.1290
    1W        W65175   3.373  24.315   5.913 -0.1767  0.0032 -0.0173
    1W        W65176  17.740  23.894   7.373 -0.1096 -0.2157 -0.0382
    1W        W65177  27.651  23.219   7.102  0.0634 -0.1320 -0.0448
    1W        W65178   8.306   5.640   3.274  0.2193  0.0943  0.1758
    1W        W65179  12.770   3.465   9.028  0.2902  0.0665  0.0443
    1W        W65180   4.045  17.474   6.231  0.0622 -0.0007  0.0111
    1W        W65181  20.130  19.592   8.415  0.1165 -0.1106 -0.1802
    1W        W65182  24.969   1.798   1.472 -0.2579 -0.1335  0.1566
    1W        W65183   1.533   2.716   8.077 -0.0696  0.0781 -0.0606
    1W        W65184  20.271  18.536   6.796  0.1690  0.1077 -0.0422
    1W        W65185  20.632  13.883   8.097 -0.3716 -0.0564  0.0557
    1W        W65186   4.679   0.147   8.599 -0.2888 -0.0043  0.0108
    1W        W65187   1.238  19.104   1.251  0.0870 -0.1430  0.0999
    1W        W65188  28.130  29.733   7.361  0.0767  0.1357  0.1133
    1W        W65189  23.972   4.826   9.258  0.1348 -0.1010 -0.1335
    1W        W65190  10.340  16.738   6.489  0.0808  0.0067 -0.0184
    1W        W65191  23.929   5.453   1.102  0.2901  0.3015 -0.1235
    1W        W65192  21.293  26.913   8.303 -0.1020  0.0588 -0.2864
    1W        W65193  21.319   9.930   7.478 -0.1698  0.2429  0.1938
    1W        W65194  27.249  23.740   7.854  0.1292 -0.1600 -0.1418
    1W        W65195  16.005   3.776   8.972 -0.1654 -0.2133  0.0309
    1W        W65196  28.834  18.168   2.920  0.1110 -0.1100 -0.0092
    1W        W65197  10.923  14.737   8.908 -0.2068  0.2527  0.0017
    1W        W65198  27.512  25.136   6.664 -0.1949  0.1119 -0.1802
    1W        W65199  24.053   5.243   1.915  0.1950 -0.0376  0.1030
    1W        W65200  27.829  24.005   1.233  0.3850  0.0276  0.1232
    1W        W65201  15.640  23.449   6.309  0.0567  0.1237 -0.1032
    1W        W65202   3.543  14.257   1.481  0.0274 -0.1934  0.0755
    1W        W65203  22.157  15.623   0.389  0.2032  0.0317  0.1947
    1W        W65204  25.797   3.427   0.302  0.2266 -0.2014  0.4007
    1W        W65205  12.447  27.738   2.765  0.1529 -0.0182  0.2243
    1W        W65206  28.692  23.427   7.974  0.0205  0.0843  0.0687
    1W        W65207  26.784  15.866   2.438 -0.0817 -0.2109  0.0425
    1W        W65208   1.751  21.862   0.776  0.3993 -0.1436  0.2583
    1W        W65209  16.166  13.850   8.009  0.2406 -0.1679 -0.3432
    1W        W65210  20.398  27.820   0.248  0.1515 -0.0867 -0.0111
    1W        W65211   4.416  22.155   1.010 -0.1530  0.1855 -0.1925
    1W        W65212  13.711   2.519   1.191  0.3645  0.0628 -0.0370
    1W        W65213   2.296   3.219   7.213 -0.1220 -0.1250  0.1133
    1W        W65214   9.504   2.797   1.063  0.0060 -0.0696  0.0944
    1W        W65215  18.193  28.181   8.598  0.1034  0.0916  0.1814
    1W        W65216  13.146  13.876   0.089  0.3690 -0.0252  0.2398
    1W        W65217   8.315  15.563   6.075 -0.0153  0.0568 -0.2086
    1W        W65218  11.005  18.639   0.643 -0.5394  0.0080  0.3781
    1W        W65219   7.944  17.358   2.195  0.0234 -0.1773 -0.0208
    1W        W65220   0.505   0.237   0.321  0.4878 -0.3084 -0.1882
    1W        W65221  27.283  25.855   0.620 -0.1600  0.1907  0.3075
    1W        W65222   1.741  20.759   6.571 -0.1177 -0.2356 -0.2525
    1W        W65223  14.331  20.163   6.467 -0.2783 -0.1275 -0.1262
    1W        W65224  18.259  14.047   7.564 -0.1160  0.0674 -0.1741
    1W        W65225  15.314  26.975   1.253  0.0319  0.1828  0.0770
    1W        W65226   5.175  29.290   6.419 -0.1632  0.1299  0.1817
    1W        W65227   2.870  25.011   2.228  0.1985  0.0692  0.0510
    1W        W65228   4.686  29.752   7.542  0.2727  0.2011 -0.3228
    1W        W65229   2.545  29.192   6.435 -0.0008 -0.0756 -0.0170
    1W        W65230   2.892  14.732   8.069  0.3499 -0.0633  0.1606
    1W        W65231  28.620   3.040   1.575 -0.0496  0.2141 -0.0438
    1W        W65232  14.598  24.908   5.970  0.0734 -0.3848 -0.1731
    1W        W65233  23.335  28.287   9.195 -0.2664 -0.1302 -0.1171
    1W        W65234  12.096  15.088   0.775  0.3182  0.0012 -0.1907
    1W        W65235  21.441  12.829   7.074  0.1407 -0.1355  0.0073
    1W        W65236  21.399   3.464   3.620  0.1625 -0.2006 -0.1209
    1W        W65237   4.453  19.950   9.009  0.0082 -0.0072 -0.1286
    1W        W65238   5.070   3.804   2.109 -0.3548  0.0528 -0.2021
    1W        W65239  29.678  26.961   8.512  0.0993  0.1902 -0.2906
    1W        W65240  20.629  20.258   0.578  0.1958 -0.0719 -0.3149
    1W        W65241   4.534   4.823   6.522 -0.1361 -0.0394  0.1721
    1W        W65242  10.212  12.739   0.730  0.0147  0.1254 -0.1558
    1W        W65243  28.998  18.198   3.480  0.1867  0.2091 -0.0789
    1W        W65244  29.348   2.037   0.026  0.0457 -0.0790  0.3421
    1W        W65245  10.289  17.154   8.705  0.0270 -0.0141  0.1394
    1W        W65246   4.955   0.593   9.508  0.2425  0.1438  0.0298
    1W        W65247  23.760   0.429   3.367  0.1475 -0.1200 -0.0519
    1W        W65248   7.130  26.178   7.562 -0.0530 -0.1727 -0.2352
    1W        W65249   1.566  12.255   0.780 -0.1140 -0.0626  0.1104
    1W        W65250   6.928  10.695   8.060  0.0990  0.1769 -0.2541
    1W        W65251  25.699  11.691   8.943 -0.1757  0.0310  0.3158
    1W        W65252  19.935  17.880   7.702 -0.2092 -0.1330  0.2847
    1W        W65253   6.271  10.890   8.974 -0.4767  0.0284 -0.2393
    1W        W65254  15.620   7.140   1.238  0.1247 -0.2879 -0.0097
    1W        W65255   2.531  27.478   5.788 -0.2156  0.1501  0.0279
    1W        W65256   3.297  14.221   9.279  0.1078 -0.0546 -0.1228
    1W        W65257  11.788   3.864   4.682 -0.1793 -0.0132  0.0654
    1W        W65258  11.090   0.499   0.869 -0.0815 -0.0951  0.1397
    1W        W65259  26.007  11.751   1.253 -0.1445  0.0628 -0.0119
    1W        W65260  13.708  25.993   8.527  0.0177  0.3017 -0.0593
    1W        W65261  17.457   3.064   2.532 -0.2366 -0.0023  0.0550
    1W        W65262  19.992   1.545   8.642  0.0791 -0.3262  0.0411
    1W        W65263   1.338  24.742   2.037 -0.2309  0.1240 -0.0418
    1W        W65264  14.622  22.371   0.280  0.0185 -0.3361  0.1274
    1W        W65265  18.683  25.375   1.245  0.2499 -0.0511  0.0834
    1W        W65266  14.714  17.794   5.629 -0.3912  0.1195 -0.5201
    1W        W65267   8.012  19.368   7.760  0.1015 -0.1796 -0.0302
    1W        W65268  27.074   9.037   1.096  0.0914 -0.2895 -0.3879
    1W        W65269  20.101  19.136   8.231  0.2139  0.1488  0.1074
    1W        W65270   2.291  25.361   8.988  0.2085  0.0248 -0.0281
    1W        W65271   4.685  27.219   7.491 -0.0923  0.0350  0.2368
    1W        W65272   0.245   4.212   7.411  0.1791 -0.2346  0.2661
    1W        W65273  23.255   9.850   1.880  0.3621 -0.0365 -0.0604
    1W        W65274  14.865   4.145   1.969  0.1024 -0.2218  0.0400
    1W        W65275   1.095   1.837   0.482 -0.0088  0.0455 -0.1029
    1W        W65276  27.246  18.985   8.251 -0.0312 -0.2884 -0.4229
    1W        W65277  11.308  22.193   8.205  0.2551  0.1619 -0.0369
    1W        W65278  25.240  24.602   7.402 -0.2091 -0.0682  0.2078
    1W        W65279   6.721  24.619   5.880  0.0217  0.0430 -0.0370
    1W        W65280   2.852  11.257   2.117 -0.1066 -0.0019 -0.0902
    1W        W65281  23.083  17.823   8.939  0.3114 -0.1204  0.3918
    1W        W65282  14.783   0.069   9.015 -0.1268  0.0004  0.4804
    1W        W65283  12.665  25.041   6.390 -0.0988  0.1376 -0.1487
    1W        W65284  25.775  21.617   2.717  0.0592  0.1630 -0.2373
    1W        W65285  27.430  15.733   0.272  0.1019 -0.1312 -0.1582
    1W        W65286  11.659   8.869   1.672 -0.0374  0.1683 -0.3511
    1W        W65287  13.878   5.948   3.197 -0.1338 -0.2657  0.2144
    1W        W65288  29.772  20.749   5.898 -0.2100 -0.0002 -0.3422
    1W        W65289  21.616  28.360   7.468  0.0611 -0.2024  0.0107
    1W        W65290  26.723   4.793   7.602  0.2436 -0.3512  0.3027
    1W        W65291   6.294  17.202   1.048  0.1831 -0.3962  0.2485
    1W        W65292  18.924   0.998   9.247 -0.0494  0.1349  0.1576
    1W        W65293  29.815   7.582   8.811  0.1587 -0.1343 -0.0754
    1W        W65294   1.963  11.329   9.318  0.2243 -0.2841 -0.1956
    1W        W65295  14.985  12.793   0.357 -0.1041 -0.0817  0.0824
    1W        W65296  11.638  22.262   6.713 -0.0544 -0.2257  0.1607
    1W        W65297  17.072  10.059   1.074 -0.3887  0.0026 -0.1527
    1W        W65298  19.407  27.211   5.873  0.1785  0.1603  0.1078
    1W        W65299  27.216  21.400   1.837 -0.1343  0.0801  0.1416
    1W        W65300   1.337   8.791   7.975 -0.0931 -0.1298 -0.1873
    1W        W65301  25.965  22.993   2.579  0.1278  0.1600  0.1688
    1W        W65302   8.292  25.675   2.265  0.0189  0.0496 -0.2431
    1W        W65303  12.651  11.403   1.593 -0.4467  0.0673  0.0754
    1W        W65304   0.940   4.783   8.624 -0.0951 -0.0475  0.0530
    1W        W65305  20.649   2.812   2.311  0.2151 -0.0274 -0.2127
    1W        W65306  19.854  21.591   8.359 -0.2235  0.2122 -0.0098
    1W        W65307   7.329  13.730   7.043  0.3498  0.2804  0.2410
    1W        W65308  17.542  17.073   7.552 -0.0751 -0.1473  0.2101
    1W        W65309  29.748   2.201   0.971 -0.3214 -0.0030  0.0473
    1W        W65310  16.408  19.418   0.159 -0.2319 -0.1265 -0.0981
    1W        W65311  26.291   6.161   2.287 -0.0631  0.1087  0.1228
    1W        W65312   3.288  16.276   1.879 -0.1330 -0.0238 -0.0963
    1W        W65313   0.576  12.920   1.510  0.0683  0.0161 -0.0674
    1W        W65314   1.935  29.656   6.636 -0.3579 -0.2642 -0.0860
    1W        W65315  10.630   8.876   8.494  0.2568 -0.1188  0.2519
    1W        W65316  14.889  28.110   1.979  0.1794  0.0938 -0.0864
    1W        W65317  23.616  25.712   1.120  0.0161 -0.1308 -0.1272
    1W        W65318  16.785  13.192   8.660 -0.1581  0.0185 -0.1097
    1W        W65319   5.830  12.165   1.495 -0.1785 -0.1090  0.0994
    1W        W65320  18.859   5.309   3.270 -0.0944 -0.2510 -0.0041
    1W        W65321  26.770  17.812   2.935 -0.0321 -0.0619 -0.0248
    1W        W65322  24.129  16.753   7.823 -0.0823  0.1512 -0.0315
    1W        W65323   0.772   4.289   0.832  0.2013  0.4042 -0.0973
    1W        W65324   3.006  28.884   9.272 -0.1702  0.0770  0.2447
    1W        W65325  14.958  12.399   8.345  0.3007 -0.0886 -0.3707
    1W        W65326  10.587  27.875   8.864  0.0894 -0.0731 -0.3631
    1W        W65327  26.894  20.356   1.938  0.0744  0.1506  0.4568
    1W        W65328   1.566   6.946   1.659  0.0032 -0.1887  0.0629
    1W        W65329   0.441   3.065   6.809  0.0769  0.3051  0.0219
    1W        W65330  23.859  28.548   7.687 -0.1372  0.0059 -0.0830
    1W        W65331  28.281   2.363   2.322  0.0467  0.1234  0.2245
    1W        W65332  16.180  29.840   8.144 -0.3128  0.1314  0.1133
    1W        W65333   0.564   4.206   1.364 -0.2045  0.0320  0.1428
    1W        W65334   5.352  20.817   8.467  0.0724  0.1742 -0.2031
    1W        W65335   9.639   9.507   2.760 -0.0411  0.2055  0.1080
    1W        W65336  17.721  22.566   5.711  0.1244  0.0864  0.0201
    1W        W65337   8.767  20.424   1.401 -0.2183  0.3317 -0.0737
    1W        W65338  15.641  28.932   8.604 -0.2247 -0.1116 -0.4241
    1W        W65339  28.328   3.194   1.978 -0.0286  0.2626  0.1706
    1W        W65340  15.679   5.579   2.551  0.2305 -0.2104  0.2289
    1W        W65341   9.134   0.085   0.103  0.0873 -0.2186  0.0008
    1W        W65342  10.487  16.921   0.260  0.0781  0.0601 -0.1481
    1W        W65343  25.693  27.307   0.239  0.1907 -0.1112  0.1879
    1W        W65344   6.642  16.716   0.392 -0.2698 -0.1959 -0.1591
    1W        W65345   1.647   0.182   0.185  0.1931  0.1992  0.0196
    1W        W65346   0.660  15.753   1.540  0.4136  0.0075 -0.0471
    1W        W65347   7.039  16.492   2.104 -0.2360 -0.3508 -0.2085
    1W        W65348   9.312   1.407   8.752 -0.0314  0.0742 -0.3974
    1W        W65349  18.262  25.778   8.125 -0.3011 -0.1638  0.1493
    1W        W65350   3.289  12.994   8.525 -0.0240 -0.3287  0.0206
    1W        W65351  24.183  11.510   9.111  0.1308 -0.0256 -0.3667
    1W        W65352   7.077  29.788   1.535  0.1312 -0.2549  0.0176
    1W        W65353  20.726   3.220   7.617 -0.2530  0.1063 -0.3037
    1W        W65354  11.529  28.653   1.580 -0.1007 -0.2029  0.0999
    1W        W65355  20.256  23.725   6.290 -0.3617 -0.1899  0.0048
    1W        W65356   7.759  12.091   8.110  0.1805 -0.5153 -0.0654
    1W        W65357  13.382  19.235   5.725 -0.0709  0.0982  0.0001
    1W        W65358  19.846  17.460   7.348  0.2416  0.0806  0.2335
    1W        W65359   3.835   4.558   9.399 -0.0699  0.0106  0.1118
    1W        W65360  23.532  26.520   3.172  0.3364  0.2782  0.0430
    1W        W65361   8.576  13.463   7.222 -0.2764 -0.2676  0.0567
    1W        W65362   5.260  21.343   8.450 -0.1405 -0.0686 -0.1434
    1W        W65363  16.868  10.031   2.886 -0.1592 -0.3638  0.0537
    1W        W65364  22.872  22.763   0.465  0.0302 -0.0359  0.0992
    1W        W65365  17.835  18.521   6.720  0.3310  0.3781 -0.0755
    1W        W65366  24.962  11.315   1.236 -0.0094 -0.0853 -0.0092
    1W        W65367  25.442   7.972   6.953  0.1137  0.1478 -0.1698
    1W        W65368   9.046  12.727   2.852 -0.1170  0.0461  0.0307
    1W        W65369  18.868   2.287   2.459  0.1991  0.1792 -0.3214
    1W        W65370  17.524  25.270   9.132  0.1008 -0.1709  0.1557
    1W        W65371  27.799  14.836   1.299 -0.2644 -0.2148  0.2198
    1W        W65372   0.962  24.652   0.308 -0.0741  0.2872 -0.2405
    1W        W65373   3.931   9.968   1.303  0.0319  0.1687  0.1297
    1W        W65374  24.366   6.431   0.520  0.1133  0.1271  0.0979
    1W        W65375  14.441   0.378   9.266  0.0571 -0.2930  0.0432
    1W        W65376   0.543  20.128   0.180  0.0137 -0.0164 -0.0434
    1W        W65377  18.060  19.956   0.271 -0.0976 -0.0479  0.0421
    1W        W65378  25.482   0.622   0.136 -0.3046 -0.1589 -0.2074
    1W        W65379  26.403  11.131   2.021  0.0267 -0.4003 -0.0446
    1W        W65380  19.489  26.997   6.404 -0.1088 -0.0206 -0.1229
    1W        W65381   3.304  20.357   2.401 -0.2300 -0.0302  0.4817
    1W        W65382  21.035  29.149   1.568  0.1444 -0.1034  0.0576
    1W        W65383  19.475  29.309   2.812  0.1645 -0.3359  0.1394
    1W        W65384  12.330  21.589   6.525  0.2145  0.2611 -0.1576
    1W        W65385  21.521   5.462   0.178  0.2169  0.1669 -0.0043
    1W        W65386  24.800  28.914   1.514 -0.1779  0.0172 -0.0096
    1W        W65387   3.871  27.130   0.760  0.1724 -0.2115  0.1122
    1W        W65388  24.518   0.345   0.089  0.1064  0.0918 -0.0897
    1W        W65389   8.640  24.793   1.792 -0.3265  0.3365  0.0050
    1W        W65390   0.281  21.083   8.835 -0.0473  0.0585  0.1190
    1W        W65391   1.720  27.715   7.534  0.2600 -0.2738 -0.0897
    1W        W65392   4.360  12.644   8.069  0.0591  0.0611  0.0139
    1W        W65393  19.157   6.791   8.974 -0.0280 -0.1864 -0.0319
    1W        W65394  14.171  12.712   1.344 -0.0164 -0.2441 -0.2401
    1W        W65395  23.212  18.466   7.173 -0.1238  0.1401 -0.1113
    1W        W65396   5.805  28.787   5.932  0.1778 -0.3163  0.0010
    1W        W65397  28.343  15.037   0.031  0.0265  0.2457  0.0963
    1W        W65398   2.606  23.187   6.552  0.1525  0.1085 -0.0857
    1W        W65399   2.510  21.168   2.810 -0.0183 -0.3698  0.0474
    1W        W65400  23.295  13.304   8.373 -0.2430 -0.1348 -0.0088
    1W        W65401   8.474   1.295   1.373  0.2418  0.3023  0.2520
    1W        W65402  17.324   4.613   9.068 -0.0751 -0.1659 -0.3563
    1W        W65403  29.266  11.686   9.414 -0.0225  0.0611 -0.1009
    1W        W65404  26.963  18.388   6.905 -0.2944 -0.1981  0.2760
    1W        W65405   2.159  18.612   2.339 -0.2888 -0.0532  0.0632
    1W        W65406   3.381   7.586   8.830 -0.0138  0.1519  0.0054
    1W        W65407  13.457  18.757   8.527  0.0128 -0.0202 -0.1406
    1W        W65408   0.261   3.389   0.976 -0.0984  0.3044 -0.1402
    1W        W65409   0.596   4.442   2.154 -0.0104  0.2328 -0.1754
    1W        W65410   2.407  11.686   1.775  0.0326  0.1930  0.1014
    1W        W65411  21.290  13.324   1.590 -0.0320 -0.1202 -0.1342
    1W        W65412  28.651   8.668   2.722  0.2980 -0.0739  0.2566
    1W        W65413  25.454   5.406   0.538 -0.0291  0.1983  0.0875
    1W        W65414  20.889   2.062   8.684 -0.0596 -0.0147 -0.1180
    1W        W65415   5.083  26.351   9.169 -0.0041 -0.1513  0.0216
    1W        W65416   7.038  27.738   0.189 -0.4310 -0.1659  0.0347
    1W        W65417  18.034  12.344   9.379  0.1703 -0.1512 -0.1180
    1W        W65418   3.475  16.886   0.730  0.0184 -0.1547 -0.0398
    1W        W65419  14.177  22.071   0.530  0.2279 -0.0855 -0.1021
    1W        W65420  15.631  25.648   7.749  0.2127  0.1107  0.1560
    1W        W65421   2.447  19.110   0.324  0.0263  0.2360 -0.2745
    1W        W65422  20.147  14.781   0.134 -0.0228  0.0091 -0.1678
    1W        W65423  26.074   7.823   2.433  0.2399  0.0766  0.2745
    1W        W65424   7.405  16.986   7.013 -0.0947 -0.2724 -0.0136
    1W        W65425  21.947  16.863   0.116 -0.2137  0.1195 -0.1937
    1W        W65426  15.429   3.664   8.792  0.0540 -0.0262 -0.2363
    1W        W65427  29.531  13.028   0.192 -0.4540 -0.2845 -0.1647
    1W        W65428  21.097   2.622   8.432  0.0435  0.1213 -0.0379
    1W        W65429  16.634   2.206   3.379  0.0445 -0.0953 -0.2557
    1W        W65430  27.245  21.423   7.313  0.2292 -0.0068  0.2657
    1W        W65431  19.522  13.873   0.238 -0.0931  0.1958 -0.4829
    1W        W65432   3.096  25.623   6.518  0.0685  0.1318  0.0522
    1W        W65433   7.625   5.199   0.405  0.3472 -0.1604  0.2857
    1W        W65434  15.949  18.546   5.630  0.2044  0.1347 -0.1131
    1W        W65435   5.881  29.802   9.150  0.1854  0.1533  0.0592
    1W        W65436  17.324   9.632   1.354 -0.0176 -0.2566  0.0963
    1W        W65437   0.190  25.080   8.763  0.1573  0.0484  0.0918
    1W        W65438   8.301  26.273   1.792 -0.1466  0.2041  0.1537
    1W        W65439  17.717  10.548   2.836  0.1121 -0.1265  0.0775
    1W        W65440  14.897  26.769   9.289 -0.2281  0.0824 -0.0306
    1W        W65441  16.483   5.240   2.059 -0.0560  0.2965  0.0328
    1W        W65442   2.815  29.290   0.990  0.0528  0.1892  0.0184
    1W        W65443  22.159   0.259   1.282 -0.3721  0.2017  0.1663
    1W        W65444  13.390  12.418   6.988 -0.1982 -0.1864  0.0458
    1W        W65445  27.470  21.681   0.916  0.0692 -0.0798  0.0482
    1W        W65446   9.871   4.799   2.475  0.1191 -0.3346  0.0644
    1W        W65447  22.771   1.918   0.947  0.0067  0.1925  0.0197
    1W        W65448   6.295  10.564   0.577  0.0173  0.0013 -0.0025
    1W        W65449  21.326   0.813   3.280  0.1751  0.1228 -0.0032
    1W        W65450  15.914   8.096   9.473 -0.0569  0.0921 -0.0137
    1W        W65451   1.855   8.919   1.465 -0.4300  0.2230  0.1968
    1W        W65452  26.971   2.322   6.334 -0.1402 -0.1486  0.1283
    1W        W65453   5.986  22.363   8.800  0.2299 -0.1573 -0.0764
    1W        W65454  17.689  26.368   2.524  0.0308 -0.2080  0.0061
    1W        W65455  16.775   4.395   1.823  0.1010  0.0058  0.3171
    1W        W65456  16.481   2.828   7.655  0.1325 -0.1112 -0.0574
    1W        W65457  25.614  11.768   0.960 -0.2395 -0.0631 -0.0640
    1W        W65458   0.297  12.311   7.778  0.1560 -0.2331 -0.1891
    1W        W65459  14.708  25.440   1.855  0.3034  0.1408  0.0273
    1W        W65460  29.784  12.012   7.604 -0.1239 -0.0058 -0.2662
    1W        W65461  21.282   4.179   8.319  0.0964  0.0504 -0.0885
    1W        W65462  12.343  10.917   2.253  0.0913 -0.0985  0.1427
    1W        W65463  14.766  22.263   9.373  0.1383  0.0805 -0.1620
    1W        W65464   9.540  15.845   8.367 -0.0276 -0.1160  0.0570
    1W        W65465  16.831  14.231   7.778  0.0263  0.0251  0.1563
    1W        W65466  17.848  29.436   0.787  0.0712  0.1531  0.4248
    1W        W65467  22.957  16.841   2.093  0.1740  0.0658  0.0037
    1W        W65468   8.055   9.757   1.850 -0.1010  0.0962  0.0827
    1W        W65469  12.146  20.697   8.364  0.1269 -0.3314 -0.0935
    1W        W65470   3.291   8.020   7.443 -0.0295 -0.0790  0.1053
    1W        W65471  10.253   0.391   0.194  0.1146 -0.0145 -0.3089
    1W        W65472   0.595  27.542   8.521  0.2200  0.1673 -0.2467
    1W        W65473  11.770  17.231   8.511  0.3608  0.3691 -0.2661
    1W        W65474  11.183  13.094   2.498 -0.1058  0.2839  0.2434
    1W        W65475  13.340  16.084   0.641 -0.3960 -0.0575  0.2215
    1W        W65476  21.868  23.648   8.503  0.0736  0.1999  0.0292
    1W        W65477  10.007  16.023   8.205  0.1059 -0.0833 -0.0805
    1W        W65478  14.411  17.826   7.001 -0.1183 -0.2167  0.0570
    1W        W65479  24.059  14.441   9.507  0.0140  0.1387  0.1772
    1W        W65480  10.786   2.981   7.874  0.0778  0.0893 -0.1787
    1W        W65481  13.609   6.867   1.238 -0.0124  0.0087  0.1337
    1W        W65482  26.051  15.685   2.123  0.1716 -0.0450  0.0138
    1W        W65483   6.101  18.764   1.620  0.0739  0.0429  0.0738
    1W        W65484  12.290  24.618   9.372  0.1120 -0.2230 -0.1598
    1W        W65485  21.506   4.590   7.976 -0.0891 -0.3381  0.1295
    1W        W65486  12.413   6.863   0.651 -0.1130 -0.1314 -0.0058
    1W        W65487  15.254  19.479   1.000  0.2743 -0.2836  0.3194
    1W        W65488   2.685   7.662   1.565 -0.0802  0.0591  0.0757
    1W        W65489  27.252  28.761   8.947 -0.3028  0.0188  0.0841
    1W        W65490  13.890   9.530   1.137  0.0361  0.1520 -0.0127
    1W        W65491  15.790  12.974   8.669 -0.0657  0.5433  0.0555
    1W        W65492   9.735   9.897   1.441 -0.0558  0.0952 -0.1155
    1W        W65493   6.651  22.352   7.586 -0.0787 -0.0006  0.0042
    1W        W65494  19.006  14.364   1.891 -0.2081 -0.4386  0.0207
    1W        W65495   9.172  10.234   8.306  0.1109 -0.1639 -0.0362
    1W        W65496   6.669   2.014   8.199 -0.0861  0.1376  0.2926
    1W        W65497   0.033  26.085   8.832 -0.0361 -0.0834  0.0706
    1W        W65498  11.321  26.154   6.939 -0.2034 -0.1264  0.2742
    1W        W65499  18.842  22.726   7.632  0.0089  0.1201 -0.0218
    1W        W65500   8.919  29.028   7.320  0.0518 -0.0783  0.2004
    1W        W65501  13.713  23.104   8.373  0.3087  0.5386 -0.2117
    1W        W65502   1.995   7.877   7.679 -0.1804  0.3376 -0.1625
    1W        W65503  22.046  27.336   8.485  0.1273  0.2819  0.3169
    1W        W65504  28.955  10.098   3.173  0.0979 -0.0900 -0.1729
    1W        W65505  23.394   0.002   3.493 -0.1915 -0.2577 -0.3140
    1W        W65506  22.637  22.536   9.167  0.2535  0.3525  0.0137
    1W        W65507  13.292  24.587   9.062  0.0815 -0.1747  0.1653
    1W        W65508  20.579  29.058   7.454  0.3324 -0.2939 -0.3125
    1W        W65509  20.383   4.077   0.954 -0.1655  0.0413 -0.0005
    1W        W65510   3.020   9.939   2.338  0.1730  0.2541 -0.0431
    1W        W65511   8.875  21.892   0.293 -0.1245  0.1565 -0.0731
    1W        W65512  14.381   9.076   1.916 -0.0137 -0.1091  0.1819
    1W        W65513   4.867  20.581   7.712  0.0702  0.0218  0.1530
    1W        W65514  15.545  24.051   0.613  0.2227 -0.1648 -0.0027
    1W        W65515  22.643   1.187   1.955 -0.3059  0.1990  0.1203
    1W        W65516  28.717   5.774   7.493  0.1603 -0.0859 -0.0923
    1W        W65517  15.904   0.872   3.725  0.0257 -0.1513  0.2821
    1W        W65518   4.988  16.394   6.486  0.0821  0.3019 -0.0919
    1W        W65519   0.235  22.818   9.025 -0.1990 -0.1645  0.1673
    1W        W65520  27.798   7.868   0.299 -0.2449 -0.2210 -0.1014
    1W        W65521  15.915  27.617   0.445  0.0379 -0.1907 -0.1785
    1W        W65522  10.788  28.121   1.624 -0.0626  0.2872 -0.2825
    1W        W65523  20.479   6.759   0.369  0.0157 -0.0590  0.0293
    1W        W65524  23.083   1.368   8.495  0.1089  0.2448  0.3193
    1W        W65525  11.786  19.097   2.684  0.1615 -0.2769  0.1650
    1W        W65526   0.448  27.405   0.521 -0.2609 -0.1024  0.0458
    1WF      WF65527  15.235   4.718   9.066  0.0625  0.0720 -0.0080
    1WF      WF65528   6.878   9.563   0.514 -0.1101 -0.0309 -0.0268
    1WF      WF65529  26.059  10.884   0.066  0.0652 -0.1434  0.1482
    1WF      WF65530   6.417  19.081   8.058  0.0773 -0.0563 -0.1779
    1WF      WF65531  11.975  29.292   1.568  0.1700  0.2863 -0.2823
    1WF      WF65532  16.391  18.632   8.666  0.1718 -0.0511  0.0968
    1WF      WF65533  20.222  13.703   1.916 -0.1872 -0.1702  0.0130
    1WF      WF65534   4.057  17.981   6.596 -0.0779  0.0533 -0.0699
    1WF      WF65535   6.772  23.948   8.496 -0.1081  0.0382  0.0092
    1WF      WF65536  11.283   2.134   1.340  0.3733  0.0438 -0.2829
    1WF      WF65537  16.494   5.966   3.635 -0.0280 -0.1329  0.1853
    1WF      WF65538  16.699   3.535   1.742 -0.0961 -0.1758  0.1733
    1WF      WF65539  23.723  25.788   9.442  0.0464 -0.1859  0.1342
    1WF      WF65540  14.608  15.015   1.142  0.0647 -0.4586 -0.0877
    1WF      WF65541  27.443   9.764   2.764  0.3214 -0.2463  0.0724
    1WF      WF65542  11.648  19.236   6.776 -0.0780  0.1640  0.0095
    1WF      WF65543   0.588   4.183   8.602  0.0441 -0.0480 -0.0635
    1WF      WF65544  21.996  15.735   8.750  0.1646 -0.0020  0.3626
    1WF      WF65545   4.268  17.978   9.011  0.1926 -0.2287 -0.0607
    1WF      WF65546  15.319  10.143   9.203  0.0264  0.1739  0.0439
    1WF      WF65547   5.009  19.567   0.051 -0.1040 -0.1094 -0.4041
    1WF      WF65548  11.210  11.759   0.325 -0.1774 -0.1981  0.1687
    1WF      WF65549  28.312  15.977   6.657  0.0498  0.1308 -0.1002
    1WF      WF65550   9.860  20.521   9.053  0.0461 -0.1764 -0.1405
    1WF      WF65551   9.741   5.703   1.209  0.2231  0.0283 -0.3450
    1WF      WF65552   6.362  17.445   7.919 -0.2749  0.1494  0.3135
    1WF      WF65553  27.961  13.892   0.636 -0.1002  0.4460 -0.2149
    1WF      WF65554   7.427   9.934   9.365 -0.4377  0.1319  0.0938
    1WF      WF65555   2.073  23.158   7.984  0.3725 -0.2241 -0.3375
    1WF      WF65556   6.334  12.905   0.116  0.0764 -0.3748 -0.0290
    1WF      WF65557  12.542   0.489   2.032  0.0319 -0.0217  0.1275
    1WF      WF65558  19.486   6.892   2.042 -0.0426 -0.0963  0.1716
    1WF      WF65559   4.245  10.853   1.916  0.2962 -0.3778 -0.1610
    1WF      WF65560  24.102  11.985   0.646 -0.1377  0.0042  0.1176
    1WF      WF65561  20.606  14.405   8.394 -0.4061  0.0053 -0.1840
    1WF      WF65562  25.913  16.513   0.584 -0.0658  0.0215 -0.0443
    1WF      WF65563  13.064  10.522   7.856  0.2341 -0.3151 -0.2174
    1WF      WF65564   6.398   9.692   0.259 -0.0086  0.3253  0.0105
    1WF      WF65565   7.466  16.604   0.031 -0.0165 -0.0234  0.1277
    1WF      WF65566  22.188  21.715   0.010  0.2306  0.0407  0.4108
    1WF      WF65567   9.443   0.181   0.979 -0.0649 -0.2234  0.1642
    1WF      WF65568   5.155  28.866   0.401 -0.1588 -0.1850 -0.2043
    1WF      WF65569   2.010  22.453   2.901 -0.1033 -0.1474 -0.0984
    1WF      WF65570   3.619  25.712   8.744 -0.1760  0.1753  0.1752
    1WF      WF65571   2.628  23.393   1.632  0.4665  0.0583 -0.2611
    1WF      WF65572   9.442  16.485   2.954 -0.0296  0.0426 -0.0731
    1WF      WF65573  13.136  19.088   7.211 -0.3782  0.2295  0.2118
    1WF      WF65574   7.082  16.232   1.147  0.2006  0.2306 -0.0100
    1WF      WF65575   3.876  26.073   8.562 -0.2822  0.2054  0.1231
    1WF      WF65576   3.255  21.968   8.013 -0.0594 -0.0586  0.0057
    1WF      WF65577  10.122  16.464   0.574 -0.0323  0.1177  0.1584
    1WF      WF65578  15.428  26.006   0.109 -0.2604  0.2609 -0.1236
    1WF      WF65579  22.273  21.278   0.948 -0.0566 -0.2169  0.1637
    1WF      WF65580  21.932  13.174   1.408 -0.1843  0.0895 -0.0821
    1WF      WF65581  13.682  23.118   5.076  0.0811  0.0460 -0.1632
    1WF      WF65582   0.564  26.293   7.589 -0.1817  0.2988 -0.0874
    1WF      WF65583  15.993  15.859   7.394 -0.3651  0.0178 -0.0449
    1WF      WF65584  23.836  25.074   1.244 -0.1107  0.1491  0.1149
    1WF      WF65585   0.091  19.964   7.094 -0.2176 -0.3060 -0.0220
    1WF      WF65586  24.245  28.465   9.215  0.0846 -0.3908 -0.1904
    1WF      WF65587   6.287   1.597   0.822  0.1209  0.0205  0.3212
    1WF      WF65588  23.432   7.947   8.692  0.0146 -0.0417 -0.0848
    1WF      WF65589  24.178   5.445   7.304  0.1130 -0.2394 -0.0378
    1WF      WF65590  23.178   3.471   0.829 -0.1280 -0.0517 -0.0130
    1WF      WF65591  18.334  29.660   7.448  0.2215  0.4057 -0.2793
    1WF      WF65592   3.461  17.147   1.294  0.0438  0.0781  0.1888
    1WF      WF65593  27.733  26.979   0.654 -0.0228 -0.1933 -0.1226
    1WF      WF65594  10.462  22.220   6.731 -0.0170 -0.1335  0.1037
    1WF      WF65595  13.449   5.673   0.877  0.0620 -0.0389  0.0602
    1WF      WF65596  26.758   5.048   1.655 -0.2020 -0.1203  0.1624
    1WF      WF65597   3.236  17.858   8.372 -0.4026 -0.1393 -0.2336
    1WF      WF65598   5.672  21.236   8.104 -0.3820  0.2337 -0.1316
    1WF      WF65599  16.009   2.012   9.057 -0.1047 -0.0378 -0.0414
    1WF      WF65600   3.015  10.315   8.847 -0.0922 -0.0155  0.0506
    1WF      WF65601   6.534  18.948   0.930 -0.1261 -0.1489  0.0784
    1WF      WF65602  29.560   6.095   0.986 -0.0082 -0.0089 -0.0995
    1WF      WF65603   3.837   7.010   8.206  0.1403  0.0518 -0.0580
    1WF      WF65604  25.984  19.390   0.590 -0.4892 -0.1121  0.3133
    1WF      WF65605   7.305   1.181   8.319 -0.1644  0.0428  0.0402
    1WF      WF65606  28.246  23.313   0.314 -0.0057 -0.1253 -0.2751
    1WF      WF65607  23.466  17.794   0.565 -0.1761 -0.0995  0.2103
    1WF      WF65608   9.079  13.920   0.411  0.2237 -0.0348  0.2893
    1WF      WF65609   9.616  20.580   8.641 -0.0988  0.1275 -0.0005
    1WF      WF65610  26.001  12.786   0.525  0.4699  0.1798 -0.0256
    1WF      WF65611   1.390   2.640   8.849 -0.0803  0.1695 -0.1577
    1WF      WF65612  10.557  20.821   7.305  0.0725  0.0095 -0.0356
    1WF      WF65613   7.591   7.775   8.873 -0.0549 -0.0029  0.2218
    1WF      WF65614  13.005   0.822   1.893 -0.1319 -0.1085  0.1761
    1WF      WF65615   4.688  11.244   2.016  0.1629 -0.1101  0.1416
    1WF      WF65616   8.761  17.591   0.365 -0.0153  0.0676 -0.0917
    1WF      WF65617   0.928   0.044   8.408 -0.0641  0.0915 -0.1620
    1WF      WF65618   5.286  27.595   7.283 -0.0429  0.0041  0.2328
    1WF      WF65619  21.339  25.982   8.185  0.1238  0.4274  0.0778
    1WF      WF65620  17.691   0.288   0.403  0.3187 -0.1709  0.3326
    1WF      WF65621   0.413  13.744   9.180 -0.0130  0.2106  0.0372
    1WF      WF65622  24.301  28.677   0.118 -0.2424 -0.0882 -0.5756
    1WF      WF65623   0.664  28.224   9.512 -0.2817  0.2924 -0.1854
    1WF      WF65624  13.425   6.243   0.826  0.0804 -0.0620 -0.0590
    1WF      WF65625  21.494   5.203   2.166 -0.1006  0.0286 -0.2710
    1WF      WF65626  25.903   5.110   0.813  0.1200  0.4075  0.1787
    1WF      WF65627  23.103   5.894   9.084 -0.1588  0.1801  0.0841
    1WF      WF65628  19.981  23.385   1.555 -0.1890 -0.1705 -0.2060
    1WF      WF65629   6.240  12.435   0.124  0.0408  0.0556  0.0548
    1WF      WF65630  19.827  22.453   7.067 -0.1786 -0.0838  0.3385
    1WF      WF65631  22.524  15.469   7.885  0.1749 -0.0324  0.1236
    1WF      WF65632  24.420   4.483   7.978  0.2295 -0.1425  0.0187
    1WF      WF65633  18.879   1.536   1.998 -0.1172  0.0801  0.0086
    1WF      WF65634  19.777  19.609   7.362  0.1076 -0.0166  0.1340
    1WF      WF65635   0.627  22.816   0.560 -0.0741 -0.1935 -0.4170
    1WF      WF65636   5.930  11.900   8.679  0.1856  0.1363 -0.4053
    1WF      WF65637  11.206  26.914   2.864 -0.3480 -0.1314  0.0360
    1WF      WF65638  29.537   5.044   7.651 -0.2270  0.1314  0.1474
    1WF      WF65639  21.041  23.498   6.452 -0.1155  0.2690 -0.1476
    1WF      WF65640  22.966  15.160   2.137  0.0338 -0.0527 -0.0482
    1WF      WF65641   6.887  18.575   0.980 -0.2985  0.1936  0.1657
    1WF      WF65642  24.241  26.627   1.893  0.0945 -0.2552 -0.3118
    1WF      WF65643  11.844   6.347   0.053 -0.1887  0.0932  0.0427
    1WF      WF65644  12.291  10.077   1.059 -0.0040  0.0388  0.0445
    1WF      WF65645   3.245   2.730   0.725  0.0488 -0.2564  0.1053
    1WF      WF65646  27.731  10.079   1.007 -0.0199 -0.2058  0.1659
    1WF      WF65647  24.287  17.184   8.319 -0.2615 -0.1825 -0.0707
    1WF      WF65648  26.380  25.225   1.481  0.4147  0.1747 -0.1496
    1WF      WF65649   6.448   9.863   7.213 -0.0529  0.0361  0.2518
    1WF      WF65650  11.701   5.229   8.600 -0.1340 -0.0529  0.1438
    1WF      WF65651  28.532  14.538   6.578 -0.1334 -0.3355 -0.0364
    1WF      WF65652  10.721  10.556   2.376 -0.1427 -0.1332  0.1785
    1WF      WF65653  19.407  27.873   8.222  0.0456 -0.0842 -0.3813
    1WF      WF65654   8.631  19.447   6.062 -0.0616 -0.0245  0.2004
    1WF      WF65655  26.034   1.782   8.454 -0.2493 -0.0989 -0.0327
    1WF      WF65656  15.095  10.028   0.608 -0.1011  0.2674 -0.0348
    1WF      WF65657   4.532  17.553   1.477 -0.0208 -0.0487 -0.0841
    1WF      WF65658  22.882  19.505   8.093  0.3076  0.2927  0.1091
    1WF      WF65659  18.064  24.831   8.406  0.1387 -0.1738  0.1301
    1WF      WF65660  29.504   0.595   0.271 -0.2258  0.0532 -0.1314
    1WF      WF65661  10.849  24.904   6.103 -0.0143 -0.0472 -0.2616
    1WF      WF65662  27.835  13.384   8.314  0.1413  0.2686 -0.1476
    1WF      WF65663   3.435  12.481   2.168 -0.0056  0.0451  0.1949
    1WF      WF65664  24.993   7.731   1.370  0.1689  0.0293  0.2025
    1WF      WF65665  24.795  17.902   0.581 -0.1769 -0.0786  0.2159
    1WF      WF65666   7.800  16.104   1.910  0.0501 -0.1698 -0.1146
    1WF      WF65667  11.384  16.225   1.010 -0.0388  0.2187  0.2620
    1WF      WF65668  22.519  24.451   7.644 -0.2681  0.3595 -0.0695
    1WF      WF65669   3.369  19.068   0.918  0.0433 -0.0190  0.2764
    1WF      WF65670  13.479  22.032   9.116 -0.0063  0.2406  0.0509
    1WF      WF65671  19.436   6.228   1.763 -0.0878 -0.1944 -0.2220
    1WF      WF65672  25.928  18.659   1.124  0.2464  0.0729 -0.1909
    1WF      WF65673  10.929   0.421   1.876 -0.1263 -0.0861  0.2015
    1WF      WF65674  13.182  22.229   6.892  0.3054  0.2618 -0.0703
    1WF      WF65675   6.416   9.881   7.738  0.1025  0.0535 -0.2033
    1WF      WF65676  14.490  11.972   8.419 -0.2006  0.0762 -0.0324
    1WF      WF65677  29.668  22.738   0.575 -0.1115  0.1165 -0.0251
    1WF      WF65678  28.055  16.602   1.435 -0.1328 -0.1952 -0.0334
    1WF      WF65679   6.381  21.921   8.398 -0.1441 -0.0355 -0.2516
    1WF      WF65680  18.593  27.059   8.052 -0.2387  0.1789  0.2324
    1WF      WF65681  21.542   4.221   0.952  0.1805 -0.1470 -0.3320
    1WF      WF65682  21.898  18.806   8.268  0.0662 -0.0195 -0.0493
    1WF      WF65683  23.787  12.453   7.885 -0.2520 -0.2162  0.1003
    1WF      WF65684   9.369   5.543   0.936 -0.2652 -0.3451 -0.1826
    1WF      WF65685  13.147   6.329   1.967  0.0826  0.1381 -0.0184
    1WF      WF65686   6.343   1.442   2.112  0.1863 -0.0454  0.0042
    1WF      WF65687   0.761  25.236   2.357 -0.1746 -0.0248  0.2669
    1WF      WF65688  27.259  19.746   2.673  0.0406 -0.0479 -0.0592
    1WF      WF65689  22.273   4.582   1.425  0.0235 -0.1611 -0.2288
    1WF      WF65690   0.828   9.694   0.740 -0.0741  0.2790 -0.0676
    1WF      WF65691  15.506  14.388   0.271  0.3180 -0.1406  0.0757
    1WF      WF65692  25.198   0.325   9.119  0.0948  0.0342  0.1361
    1WF      WF65693  15.417  18.488   1.143  0.1961 -0.2896  0.3067
    1WF      WF65694   9.137   6.003   8.945 -0.0863  0.1324 -0.0095
    1WF      WF65695   0.814   9.375   2.715 -0.1957  0.1539  0.4078
    1WF      WF65696  28.894   0.122   8.229  0.1342  0.0589  0.1297
    1WF      WF65697  23.431  23.374   9.400  0.0637  0.0387  0.4643
    1WF      WF65698  24.643  22.745   7.454  0.2829 -0.1673  0.0563
    1WF      WF65699  22.418   2.257   0.324 -0.2560 -0.2465  0.1013
    1WF      WF65700  24.939  20.475   8.768 -0.0286 -0.0026  0.2731
    1WF      WF65701  29.333  22.307   6.228  0.0078 -0.0428 -0.0981
    1WF      WF65702  22.123  24.575   7.943 -0.0519  0.0989 -0.2154
    1WF      WF65703  15.020  25.402   7.073 -0.0139  0.0133 -0.2971
    1WF      WF65704  13.696  16.970   0.065  0.4750 -0.2578 -0.3126
    1WF      WF65705  27.684   8.320   0.714  0.1555 -0.0366 -0.1574
    1WF      WF65706  25.215   3.699   1.289 -0.1383  0.2398  0.1822
    1WF      WF65707   2.177  29.424   9.128  0.0638  0.1509 -0.0691
    1WF      WF65708  17.227  22.831   7.134  0.2183 -0.0283 -0.4925
    1WF      WF65709  11.107   1.801   1.044 -0.2433 -0.0792  0.0574
    1WF      WF65710  18.961   1.077   0.369  0.0623 -0.0453  0.0816
    1WF      WF65711   8.078  22.714   7.906  0.1714 -0.3634  0.1761
    1WF      WF65712  10.057   8.601   0.086 -0.2009 -0.0960 -0.2169
    1WF      WF65713   8.403   1.441   7.809 -0.1954 -0.1832 -0.0695
    1WF      WF65714   6.663  12.809   6.999 -0.0316 -0.0351 -0.0483
    1WF      WF65715  21.182  24.635   0.610  0.1379 -0.0484  0.0189
    1WF      WF65716   5.044   9.585   9.083 -0.1752 -0.1082  0.2135
    1WF      WF65717  17.691   7.912   0.122  0.1058 -0.1565 -0.1398
    1WF      WF65718  18.486  25.064   8.687  0.2601 -0.0713  0.0456
    1WF      WF65719  27.721   5.718   8.852 -0.0856 -0.0995 -0.0535
    1WF      WF65720   7.208  28.567   2.973  0.0534 -0.0422 -0.1737
    1WF      WF65721   1.572  28.500   0.095 -0.0203 -0.3798  0.1518
    1WF      WF65722  11.354  18.353   9.006  0.2016  0.0365  0.0540
    1WF      WF65723   9.521  28.972   8.412  0.2254 -0.1530 -0.0477
    1WF      WF65724  21.859   4.642   2.871  0.0349 -0.2947  0.3471
    1WF      WF65725  21.355  17.033   9.041  0.0118 -0.0235 -0.2100
    1WF      WF65726   7.807  14.000   6.349  0.1267  0.0364  0.1207
    1WF      WF65727   6.902   4.889   0.700 -0.1507 -0.0541 -0.0187
    1WF      WF65728   4.461  28.177   9.268  0.0640  0.1999 -0.2824
    1WF      WF65729   2.194   7.236   8.758 -0.2249  0.0529  0.1040
    1WF      WF65730  24.752   3.711   6.975 -0.0912 -0.2245 -0.1023
    1WF      WF65731  14.299  28.623   0.866  0.1238  0.0859 -0.2328
    1WF      WF65732  17.176  21.534   7.343  0.1628 -0.1495 -0.2456
    1WF      WF65733  10.395  25.980   9.525 -0.0370  0.0446 -0.1003
    1WF      WF65734   6.064  28.863   7.609  0.2050 -0.0372 -0.1256
    1WF      WF65735  21.933  11.980   1.208  0.1515  0.2423 -0.1786
    1WF      WF65736  20.215  29.658   0.856 -0.1963  0.2050 -0.2566
    1WF      WF65737  28.328   3.034   8.528  0.0179 -0.0582 -0.0013
    1WF      WF65738  27.543  10.972   8.670  0.2111  0.0417  0.0355
    1WF      WF65739   6.091   0.224   0.786  0.0294  0.0127  0.3624
    1WF      WF65740  25.164   4.587   9.351 -0.0240 -0.0370 -0.0189
    1WF      WF65741  13.765   4.265   7.735  0.1844 -0.1055  0.0579
    1WF      WF65742   6.674   5.545   0.756 -0.2839 -0.3432  0.1745
    1WF      WF65743  14.820   9.758   0.917 -0.3653 -0.0776 -0.0190
    1WF      WF65744   3.683  12.547   0.428 -0.1294  0.0844  0.1163
    1WF      WF65745  11.957  23.704   7.141 -0.1897  0.2157 -0.1039
    1WF      WF65746  12.718  22.449   8.814 -0.0582 -0.0141  0.0640
    1WF      WF65747   4.015  11.156   8.648  0.0023  0.0732  0.3200
    1WF      WF65748   8.769   2.260   2.057  0.0336 -0.1361  0.0990
    1WF      WF65749   8.963   9.669   8.602 -0.3708 -0.0209 -0.0692
    1WF      WF65750   7.996  14.071   0.106 -0.0345  0.0514 -0.3146
    1WF      WF65751   6.990  18.361   0.032 -0.0619  0.2348 -0.0208
    1WF      WF65752  17.686  25.699   7.432  0.2112 -0.5786  0.0967
    1WF      WF65753  15.369   0.277   8.987 -0.0556 -0.0326  0.1956
    1WF      WF65754  23.383   3.703   8.688 -0.0753 -0.0893 -0.0274
    1WF      WF65755   2.286  27.715   7.894 -0.4037  0.0279 -0.2337
    1WF      WF65756  25.909   2.233   8.171 -0.0626  0.1591 -0.0843
    1WF      WF65757   6.862   8.829   7.218  0.2705 -0.1740  0.1700
    1WF      WF65758   4.616   2.640   1.493 -0.0850  0.0200 -0.0656
    1WF      WF65759   8.216   0.336   0.392 -0.1996  0.0600  0.2698
    1WF      WF65760  16.133  28.328   9.300  0.1426 -0.2319  0.1012
    1WF      WF65761   5.694  21.678   1.080 -0.1018  0.0494 -0.1399
    1WF      WF65762  28.311  21.118   3.347 -0.0911 -0.4720  0.3322
    1WF      WF65763   8.711  24.270   1.643  0.0015  0.0277  0.0127
    1WF      WF65764  28.008  17.404   0.681 -0.1303 -0.1208  0.2208
    1WF      WF65765  11.438  14.897   1.394 -0.2731  0.2026  0.3738
    1WF      WF65766  23.873   6.182   1.863 -0.0171  0.0972  0.2280
    1WF      WF65767  25.809  21.210   1.455  0.2670  0.0918 -0.0857
    1WF      WF65768   6.232   7.310   9.234  0.2924 -0.0658 -0.0183
    1WF      WF65769  29.254  22.737   0.216  0.1966  0.4823  0.0923
    1WF      WF65770  19.818  16.207   6.176  0.1969 -0.0997  0.0273
    1WF      WF65771   4.350   6.884   2.019  0.1122 -0.3713 -0.0186
    1WF      WF65772  13.709  26.247   7.927 -0.0124  0.1044 -0.1605
    1WF      WF65773  13.573  17.288   1.083 -0.1548  0.2031  0.0894
    1WF      WF65774   2.632  15.118   7.637 -0.0824  0.1822 -0.1894
    1WF      WF65775  29.126  12.060   0.551 -0.0704 -0.3807  0.0170
    1WF      WF65776   4.826   3.789   3.573  0.1299 -0.2531 -0.0329
    1WF      WF65777  17.912  13.368   8.036 -0.1006 -0.2148 -0.3941
    1WF      WF65778   8.903  17.528   2.960  0.0910  0.0024  0.0648
    1WF      WF65779   4.243   5.695   8.984  0.1347 -0.0424 -0.4575
    1WF      WF65780  14.737  11.966   2.660 -0.1676 -0.3170 -0.1364
    1WF      WF65781   5.394  24.582   7.679 -0.1124  0.1328 -0.1760
    1WF      WF65782   1.846  12.831   1.875  0.0203  0.1399 -0.1767
    1WF      WF65783   6.967  25.518   0.320 -0.0381 -0.1694  0.1353
    1WF      WF65784   6.964  14.744   8.243  0.2881 -0.0410  0.0927
    1WF      WF65785  26.027  18.174   2.872  0.2931  0.2241  0.0334
    1WF      WF65786  11.629  11.571   0.107  0.3054  0.1720 -0.0161
    1WF      WF65787   1.551  11.577   8.147 -0.3797  0.4347  0.2136
    1WF      WF65788  20.435   2.883   8.065  0.2760 -0.1839  0.0784
    1WF      WF65789   1.977  20.236   1.584 -0.0030  0.1610 -0.0434
    1WF      WF65790  28.563  16.483   9.408  0.1748 -0.1625  0.0535
    1WF      WF65791  15.998  23.355   1.201  0.0507 -0.0836 -0.0498
    1WF      WF65792   0.132  15.692   7.816 -0.0281  0.4346  0.0871
    1WF      WF65793   8.710   5.631   0.194  0.0579  0.1442  0.2716
    1WF      WF65794   4.440  28.108   0.255  0.0574  0.0788  0.1352
    1WF      WF65795  26.274  19.784   0.557  0.1937 -0.1491 -0.3008
    1WF      WF65796  28.423  28.142   0.202 -0.0384  0.0720 -0.0562
    1WF      WF65797  23.943  16.419   1.180 -0.3164  0.0859 -0.0129
    1WF      WF65798  26.882  16.377   0.420 -0.2528 -0.0441  0.3480
    1WF      WF65799  26.243  18.322   0.821 -0.0130 -0.1929 -0.0525
    1WF      WF65800  10.988  17.418   2.710  0.2052  0.1430 -0.0883
    1WF      WF65801  23.383   4.133   8.490 -0.0054  0.2006 -0.1107
    1WF      WF65802   4.580   6.355   1.547  0.4265 -0.0109  0.2078
    1WF      WF65803   5.757   4.294   6.636  0.0688  0.0742  0.0338
    1WF      WF65804   4.413  25.898   8.436  0.1621  0.2113 -0.0255
    1WF      WF65805  15.528   4.999   2.374 -0.1264  0.0886  0.2459
    1WF      WF65806  25.279  25.417   0.387  0.2125  0.2223  0.3249
    1WF      WF65807  20.039  25.684   0.219 -0.3527  0.3335 -0.0318
    1WF      WF65808   2.845  15.395   8.048 -0.1749 -0.1907  0.0335
    1WF      WF65809  16.311   6.483   4.003 -0.2065  0.0346  0.0122
    1WF      WF65810  24.650   0.094   8.696 -0.1015  0.0824 -0.0645
    1WF      WF65811  22.958   3.603   1.883  0.1668 -0.0180 -0.1066
    1WF      WF65812   4.939   2.267   1.736  0.4489  0.2070  0.2092
    1WF      WF65813  18.995   3.982   8.187 -0.0490  0.0636  0.1267
    1WF      WF65814  27.984  18.581   7.765 -0.0584 -0.2617  0.2392
    1WF      WF65815   6.831   1.489   6.449  0.6059  0.0221 -0.0810
    1WF      WF65816   3.790   6.910   7.740  0.0528  0.0190  0.1647
    1WF      WF65817   2.331   3.499   8.657 -0.2032 -0.0106  0.0364
    1WF      WF65818   8.080   4.096   0.669  0.0835  0.1674 -0.0246
    1WF      WF65819  23.375  29.096   0.803 -0.2512  0.0569  0.0284
    1WF      WF65820  11.073  20.121   0.275  0.1062  0.1912 -0.1937
    1WF      WF65821  19.038  26.209   6.992 -0.4336 -0.1224  0.0963
    1WF      WF65822  10.594   4.433   1.859  0.1298  0.0661 -0.0859
    1WF      WF65823  11.963  13.137   7.679 -0.3603  0.1763 -0.2197
    1WF      WF65824  10.867  11.778   1.214  0.2635 -0.2112 -0.0060
    1WF      WF65825  16.600   9.969   8.109  0.0381  0.3293  0.0364
    1WF      WF65826  15.642  24.845   0.773  0.0894 -0.1863 -0.2056
    1WF      WF65827  23.323  29.304   3.254  0.2469  0.1793 -0.2081
    1WF      WF65828  12.882   8.174   0.607 -0.0947 -0.2893  0.0455
    1WF      WF65829   9.473  23.335   0.443  0.0131 -0.1167  0.3812
    1WF      WF65830   3.488  22.362   7.826  0.2131  0.1066  0.1084
    1WF      WF65831  15.090  28.766   3.097 -0.1220  0.0854 -0.1423
    1WF      WF65832   0.140  18.388   9.379  0.3018  0.1890 -0.4452
    1WF      WF65833  18.509   8.267   2.219 -0.2335  0.0496  0.0741
    1WF      WF65834  17.711  20.863   7.065  0.1009  0.0550  0.1939
    1WF      WF65835  28.234   1.074   8.216  0.0026  0.0191 -0.1024
    1WF      WF65836  25.410  18.873   1.112  0.1310  0.0248  0.1888
    1WF      WF65837   2.715  23.783   7.176 -0.0292  0.2050 -0.0471
    1WF      WF65838   7.774   7.977   6.435 -0.1526 -0.2193  0.2821
    1WF      WF65839   9.135   6.499   8.844  0.1015  0.2201  0.0045
    1WF      WF65840  13.356  25.182   0.286  0.2840 -0.0323  0.1703
    1WF      WF65841  16.253  26.406   6.749 -0.0143 -0.1159  0.2653
    1WF      WF65842  11.016   8.786   3.171  0.1019  0.0884 -0.1064
    1WF      WF65843   0.996  21.526   8.638 -0.4424 -0.2300 -0.1079
    1WF      WF65844   5.418  16.194   0.086  0.2980  0.1221  0.1898
    1WF      WF65845  25.142  16.747   7.817 -0.2043  0.2493 -0.1066
    1WF      WF65846   3.679  22.022   7.408 -0.1002  0.0912  0.0786
    1WF      WF65847   4.521   3.535   8.524 -0.0675 -0.2563 -0.0522
    1WF      WF65848  27.341   9.217   6.845  0.1564 -0.0536 -0.0559
    1WF      WF65849   7.559  14.946   5.827  0.1282 -0.1473 -0.0420
    1WF      WF65850  26.953  28.608   0.514 -0.0082 -0.2690 -0.0880
    1WF      WF65851  11.641  18.644   6.956 -0.1532  0.2055  0.1734
    1WF      WF65852  24.722  27.988   1.362 -0.0297 -0.2907  0.0833
    1WF      WF65853  17.910  17.623   0.921  0.1868 -0.2044  0.2110
    1WF      WF65854  21.947  28.150   9.186 -0.0801 -0.2609  0.1414
    1WF      WF65855  21.245  10.165   9.412  0.2760 -0.1229  0.0459
    1WF      WF65856   1.644  21.785   7.594  0.1837 -0.2319  0.3854
    1WF      WF65857  21.642  25.084   2.185  0.0513  0.4835 -0.1543
    1WF      WF65858  14.494  11.270   0.047  0.0649 -0.0356  0.1316
    1WF      WF65859  23.804  10.140   9.462 -0.1370 -0.0520 -0.1646
    1WF      WF65860  19.906  29.194   2.101 -0.2091  0.0601  0.1627
    1WF      WF65861  17.303  28.573   0.940  0.2536 -0.0574  0.3952
    1WF      WF65862  17.827  12.458   1.583 -0.1692 -0.0373  0.2793
    1WF      WF65863  10.522  25.616   8.116  0.2924  0.1841 -0.0133
    1WF      WF65864   2.961   7.659   2.960  0.4261  0.1485  0.1997
    1WF      WF65865   1.021  29.568   8.715 -0.0049 -0.1345 -0.0541
    1WF      WF65866  28.044   1.421   0.782  0.0541 -0.0177 -0.3000
    1WF      WF65867  18.280  15.843   9.436 -0.0147  0.0630  0.1647
    1WF      WF65868  18.347  18.221   6.655  0.0163  0.0006  0.2336
    1WF      WF65869  29.692  28.387   8.731  0.0068  0.0719  0.1269
    1WF      WF65870  28.022  24.188   0.082 -0.0781 -0.1042  0.0488
    1WF      WF65871  26.793  17.412   8.672 -0.0327  0.0044  0.0601
    1WF      WF65872  10.666  10.400   8.402  0.3059  0.1539  0.0694
    1WF      WF65873  26.946   1.360   3.116 -0.1402 -0.0389  0.1935
    1WF      WF65874  25.273  12.860   0.064  0.0957 -0.1358  0.0980
    1WF      WF65875  24.941  25.945   7.720  0.2571  0.1008  0.0367
    1WF      WF65876  26.092   0.021   9.309 -0.2244  0.0506  0.2015
    1WF      WF65877  21.138  26.750   0.914  0.4027  0.0517 -0.1453
    1WF      WF65878  17.903  11.900   8.051  0.0214  0.0325 -0.0186
    1WF      WF65879  12.143  26.398   7.206  0.1378  0.1230  0.0079
    1WF      WF65880   7.391  10.522   2.857  0.0213 -0.2171 -0.1077
    1WF      WF65881   9.549  26.573   8.586  0.1209 -0.2210  0.0690
    1WF      WF65882   0.156  16.168   7.666 -0.0367  0.3056 -0.1095
    1WF      WF65883   1.727  26.008   7.149  0.2401  0.2928  0.2951
    1WF      WF65884   9.445  19.345   2.751 -0.0418  0.2870  0.0308
    1WF      WF65885  27.221  27.844   0.807  0.0069 -0.2194 -0.0288
    1WF      WF65886   3.758  20.997   7.832  0.1625  0.0304  0.0720
    1WF      WF65887   3.084  10.821   8.901  0.2581 -0.1669 -0.1092
    1WF      WF65888  20.329  13.411   8.917  0.1500 -0.2111  0.2408
    1WF      WF65889  29.268  29.573   8.909 -0.0914 -0.0532  0.1589
    1WF      WF65890  15.809  26.991   0.822 -0.1450 -0.2235 -0.0059
    1WF      WF65891  22.787   5.767   8.721  0.0276 -0.3409 -0.2475
    1WF      WF65892   0.833   7.155   2.935  0.1550 -0.2507 -0.1199
    1WF      WF65893   9.263  13.759   0.918 -0.0703  0.3095 -0.1674
    1WF      WF65894   2.231   4.550   7.981  0.0358 -0.0908  0.0335
    1WF      WF65895  13.030  15.255   1.048  0.3296  0.1890  0.2401
    1WF      WF65896   4.058  17.241   1.245  0.2239 -0.5388 -0.1148
    1WF      WF65897   0.370   1.529   7.500 -0.2506 -0.1431  0.1706
    1WF      WF65898  10.039  28.903   6.997  0.0921  0.0237  0.2389
    1WF      WF65899   5.498  11.080   7.145  0.0594  0.1220 -0.1770
    1WF      WF65900   9.018  10.110   8.909  0.3049  0.0889 -0.1695
    1WF      WF65901  12.203  19.593   9.044 -0.1244 -0.3235 -0.0655
    1WF      WF65902   7.063  11.458   1.245  0.0185  0.0020  0.1079
    1WF      WF65903  20.475   9.001   1.544  0.0882  0.0386 -0.1537
    1WF      WF65904  13.997   5.266   8.897 -0.1588 -0.1432 -0.0593
    1WF      WF65905  17.218  13.144   1.869  0.3649  0.1569 -0.0627
    1WF      WF65906  21.820  25.324   8.742 -0.0482 -0.2470  0.2872
    1WF      WF65907  11.821  15.698   2.738  0.0451 -0.2078  0.0668
    1WF      WF65908  26.521  19.727   6.555 -0.0692  0.0343 -0.1433
    1WF      WF65909  14.509   4.947   1.179  0.0630 -0.1738 -0.3917
    1WF      WF65910  14.642  29.562   0.736 -0.1222 -0.0551 -0.1365
    1WF      WF65911  19.337   5.933   8.293 -0.0873 -0.2944 -0.1857
    1WF      WF65912  29.173   5.305   8.096 -0.0673  0.1432 -0.0178
    1WF      WF65913  20.336  23.578   8.299  0.1575  0.0969 -0.1479
    1WF      WF65914  11.789  20.704   2.148 -0.2107 -0.1743  0.2144
    1WF      WF65915  21.644   7.039   1.339  0.1776 -0.3192 -0.1900
    1WF      WF65916  27.636  10.349   6.499 -0.1161 -0.0459  0.1257
    1WF      WF65917  26.821  10.213   8.154  0.0354  0.0354  0.4239
    1WF      WF65918  21.087  27.649   9.186  0.0410  0.2104 -0.0146
    1WF      WF65919   5.529   3.213   9.331  0.2078 -0.0119  0.1989
    1WF      WF65920  26.008  22.288   8.926 -0.1164  0.1571  0.0809
    1WF      WF65921  12.171  26.792   0.894 -0.1962 -0.0214  0.1766
    1WF      WF65922  10.611   3.959   0.260  0.0838 -0.1089  0.2634
    1WF      WF65923  27.177  14.406   1.453  0.0484  0.1903 -0.1201
    1WF      WF65924   3.613   1.176   6.857 -0.2366 -0.1194  0.0693
    1WF      WF65925   9.958  26.697   6.649 -0.0054 -0.0283  0.2379
    1WF      WF65926  15.682   8.300   2.133  0.0218 -0.0174 -0.1173
    1WF      WF65927  18.545  28.689   8.442  0.1819  0.0688 -0.2716
    1WF      WF65928  14.686  18.031   1.626  0.0013  0.1920  0.0963
    1WF      WF65929   8.568  23.639   8.017  0.1140  0.3081 -0.3589
    1WF      WF65930  18.775  16.630   8.216  0.0261 -0.0716 -0.1143
    1WF      WF65931  17.405  17.734   1.027  0.0274  0.0083 -0.1564
    1WF      WF65932   4.886  15.528   8.808  0.2790 -0.0073  0.4217
    1WF      WF65933  12.772  24.165   9.347 -0.1713  0.0866  0.1496
    1WF      WF65934  10.694  25.828   1.502 -0.0463 -0.2782 -0.1809
    1WF      WF65935  26.910  16.136   8.212  0.1189  0.0349  0.1292
    1WF      WF65936   9.611  15.856   7.216  0.0731 -0.0372  0.3401
    1WF      WF65937   2.664   2.628   1.714 -0.2413  0.2481 -0.1305
    1WF      WF65938   4.875   5.228   7.379 -0.1741 -0.2992 -0.0852
    1WF      WF65939  16.958  29.060   1.156 -0.3059 -0.0535 -0.2030
    1WF      WF65940  17.310  26.811   0.753  0.0958  0.0458  0.0494
    1WF      WF65941  24.227  23.639   6.596  0.1738 -0.0441  0.0229
    1WF      WF65942  12.339  13.884   8.066 -0.1009 -0.0718 -0.0102
    1WF      WF65943   7.649  11.937   0.918  0.0381 -0.0028  0.0731
    1WF      WF65944  22.618  19.546   2.176  0.0650  0.2120 -0.1657
    1WF      WF65945  19.116  21.690   8.013 -0.0309  0.1267  0.3964
    1WF      WF65946   8.287  29.329   0.351 -0.0349  0.0909  0.1387
    1WF      WF65947  23.767  25.293   1.752  0.0273 -0.4204  0.0063
    1WF      WF65948  29.525  20.613   0.318 -0.2259  0.2303 -0.0591
    1WF      WF65949  21.896  20.404   7.426 -0.3556 -0.3092 -0.0604
    1WF      WF65950  12.083  14.760   8.922 -0.0424 -0.1918 -0.2663
    1WF      WF65951   3.910  10.485   2.035 -0.3784  0.1615  0.1803
    1WF      WF65952   8.648   4.608   3.568  0.0122  0.2725  0.1252
    1WF      WF65953   1.810  11.681   0.866  0.0874  0.1792  0.0368
    1WF      WF65954  16.238   6.566   0.739 -0.1352  0.3254 -0.0957
    1WF      WF65955  13.664  15.964   8.836 -0.2252  0.3695 -0.1107
    1WF      WF65956  11.246  21.723   0.122 -0.2282 -0.3145 -0.3031
    1WF      WF65957  29.357   7.151   1.868 -0.1998 -0.3417 -0.0586
    1WF      WF65958   8.074  26.473   6.378  0.0552  0.1515  0.2570
    1WF      WF65959   5.437  15.123   0.736  0.1376 -0.2339 -0.0183
    1WF      WF65960  20.374  16.814   7.704 -0.0069  0.3121  0.1744
    1WF      WF65961   2.300  17.074   8.726  0.0593  0.1926  0.3238
    1WF      WF65962  12.607   9.805   8.063  0.1289  0.3142 -0.0327
    1WF      WF65963  13.756  24.895   8.112 -0.2237  0.1109 -0.1665
    1WF      WF65964   5.784  26.891   1.140  0.0549 -0.0137 -0.1395
    1WF      WF65965  12.357  12.682   2.196  0.1627 -0.0733  0.2617
    1WF      WF65966   5.626  11.583   9.211 -0.1320  0.0967  0.1214
    1WF      WF65967  15.372  28.165   9.299 -0.2845  0.2856 -0.4526
    1WF      WF65968   3.391  23.005   1.052 -0.2982 -0.0577  0.0014
    1WF      WF65969   3.230  25.793   7.693 -0.1271 -0.2711 -0.0916
    1WF      WF65970   6.408  13.557   6.331  0.1784  0.3485  0.0114
    1WF      WF65971   0.733  10.532   7.421  0.0948  0.0826 -0.3764
    1WF      WF65972  15.108   7.409   0.313 -0.0267  0.1927  0.0620
    1WF      WF65973  22.834  17.599   9.465  0.2041 -0.5249  0.0232
    1WF      WF65974   2.380  14.081   9.402  0.0422  0.1304 -0.0181
    1WF      WF65975  13.408  20.045   0.560 -0.5396  0.0672  0.2538
    1WF      WF65976  13.395   2.656   0.222  0.2633 -0.1366  0.1621
    1WF      WF65977  15.085  26.050   9.231 -0.0997 -0.4049  0.1361
    1WF      WF65978  19.981  15.692   9.465  0.0769 -0.0933 -0.0281
    1WF      WF65979  14.681  24.149   8.410  0.2741 -0.0623 -0.1762
    1WF      WF65980   1.497  17.219   1.178  0.0280 -0.2083  0.0753
    1WF      WF65981  22.110   9.406   0.267 -0.1298  0.3030  0.1197
    1WF      WF65982  27.051  15.371   9.221  0.3276 -0.0710  0.0319
    1WF      WF65983  14.522  28.090   8.660 -0.0671 -0.3603  0.0252
    1WF      WF65984   7.853  16.570   8.633  0.0056  0.3182  0.1744
    1WF      WF65985  16.823  23.645   5.687 -0.1105  0.2238  0.1597
    1WF      WF65986   5.442  16.676   6.832 -0.1367 -0.0579  0.1100
    1WF      WF65987  29.691   5.595   1.013  0.3175 -0.3928  0.2018
    1WF      WF65988   5.125   7.541   8.115  0.2089  0.1932 -0.0189
    1WF      WF65989  10.166  21.859   0.418  0.2050 -0.1459  0.0515
    1WF      WF65990  14.129  28.272   1.202  0.1441  0.1123 -0.0972
    1WF      WF65991  18.593  12.443   9.125 -0.0904  0.0452  0.2126
    1WF      WF65992   3.169  12.842   7.886 -0.2839  0.1251 -0.0682
    1WF      WF65993  26.528  20.466   0.259 -0.0712  0.0056 -0.0506
    1WF      WF65994  16.707  18.811   9.056 -0.1283 -0.0786  0.4311
    1WF      WF65995  23.083  10.957   2.024 -0.0135 -0.0570  0.0687
    1WF      WF65996  19.632  23.303   0.004  0.1916 -0.0438  0.1728
    1WF      WF65997   6.644  14.150   0.129 -0.2801 -0.0761  0.1094
    1WF      WF65998   6.193   4.728   1.197  0.2935 -0.3065  0.0729
    1WF      WF65999  28.363  15.000   7.266  0.1042  0.0533  0.2224
    1WF      WF66000  17.739   4.209   8.199 -0.1653 -0.1831  0.1803
    1WF      WF66001  25.888  27.416   7.566 -0.0469 -0.0358  0.0138
    1WF      WF66002   0.349  19.911   8.015  0.1433 -0.1741  0.1831
    1WF      WF66003   1.819   8.341   8.027  0.0045 -0.0475 -0.3338
    1WF      WF66004  23.622   8.936   9.295  0.2651  0.2304  0.0248
    1WF      WF66005  19.860  20.431   0.022  0.2698 -0.1080  0.0998
    1WF      WF66006   3.817  16.789   1.374 -0.1474 -0.2829  0.0878
    1WF      WF66007   6.727   7.446   1.756 -0.1533 -0.2052 -0.2449
    1WF      WF66008   6.169   1.156   6.006  0.1658  0.3123 -0.0207
    1WF      WF66009  18.324  13.720   8.093 -0.1025  0.3375 -0.0203
    1WF      WF66010   7.384  14.281   0.982 -0.0775 -0.0889  0.0988
    1WF      WF66011  24.221   9.395   3.083  0.1702  0.1196  0.1475
    1WF      WF66012  10.690  12.957   7.261  0.0898 -0.1955  0.0138
    1WF      WF66013  11.824   3.003   9.507 -0.0339  0.3505  0.0191
    1WF      WF66014   2.838  12.884   7.473 -0.0711 -0.0406  0.0355
    1WF      WF66015  13.440  10.666   1.275  0.1467 -0.0859  0.2379
    1WF      WF66016   8.667  21.783   7.725  0.1587 -0.3488 -0.1377
    1WF      WF66017  15.264  20.731   8.384 -0.2887  0.2230  0.3096
    1WF      WF66018  27.379  21.640   9.301  0.0153 -0.0097  0.1813
    1WF      WF66019   8.226  24.964   8.327 -0.1895  0.2305 -0.1302
    1WF      WF66020   3.230  27.577   8.029 -0.0193  0.1732  0.0908
    1WF      WF66021  24.443  23.819   0.352 -0.0525  0.1450  0.0637
    1WF      WF66022   9.446  25.547   0.316 -0.0333 -0.0384  0.3411
    1WF      WF66023  25.914   5.079   8.821  0.0171 -0.0046  0.0129
    1WF      WF66024  20.394  26.896   6.627 -0.0362 -0.0379 -0.3901
    1WF      WF66025   5.890  16.198   0.006  0.1843 -0.2342 -0.3609
    1WF      WF66026  20.490  26.846   1.568  0.1155 -0.0306  0.0835
    1WF      WF66027  23.190  11.618   8.391 -0.2688 -0.1410  0.1445
    1WF      WF66028   9.227  10.911   8.040 -0.1474 -0.1967  0.1050
    1WF      WF66029   9.916  14.001   9.089  0.1016 -0.4435  0.1269
    1WF      WF66030  18.517   8.111   1.496  0.0403 -0.3308  0.2766
    1WF      WF66031  22.717  11.274   7.483 -0.2800  0.0939  0.1061
    1WF      WF66032   8.725  19.911   0.435 -0.1938 -0.1809  0.0587
    1WF      WF66033  11.589  22.517   0.661  0.0572 -0.0739  0.2207
    1WF      WF66034   5.874  22.081   0.292 -0.0763  0.0661  0.2790
    1WF      WF66035  22.971  27.389   7.238  0.2048 -0.0892 -0.0108
    1WF      WF66036  14.592   3.061   0.388  0.0832 -0.4800  0.0970
    1WF      WF66037  19.502  24.572   2.405  0.2126  0.1945  0.0924
    1WF      WF66038   9.423  14.987   7.877  0.0536 -0.1227  0.0194
    1WF      WF66039   2.276  19.893   1.967 -0.0854  0.0659 -0.0695
    1WF      WF66040  24.684  24.106   0.674 -0.4625  0.1131 -0.1417
    1WF      WF66041   7.594  16.677   9.069 -0.1882  0.2124 -0.0193
    1WF      WF66042  16.195  26.524   7.244  0.1853  0.0315 -0.0412
    1WF      WF66043   2.008  13.066   6.134 -0.1437  0.1955 -0.1556
    1WF      WF66044  17.702  11.476   0.730 -0.2188 -0.0321  0.2193
    1WF      WF66045  11.493   7.132   9.105  0.2455  0.1514 -0.0725
    1WF      WF66046   2.437   8.006   0.774 -0.1351 -0.0372  0.2157
    1WF      WF66047   6.331  25.880   7.759  0.0603  0.0986 -0.2787
    1WF      WF66048  11.295  18.797   1.357 -0.0897 -0.0381 -0.0898
    1WF      WF66049   0.201  14.975   8.936  0.0514 -0.2376  0.2050
    1WF      WF66050  19.263  22.453   9.039  0.0987 -0.0893 -0.1742
    1WF      WF66051  19.165  24.302   6.658  0.3054 -0.2337 -0.0455
    1WF      WF66052  26.575   1.454   9.056  0.5014  0.1392  0.1412
    1WF      WF66053  19.172   4.998   0.213 -0.0538  0.2001  0.0309
    1WF      WF66054  29.293  29.491   6.576  0.2627 -0.0242 -0.0161
    1WF      WF66055   7.189  23.154   6.282 -0.0559 -0.0087 -0.1880
    1WF      WF66056   7.724   7.786   9.352 -0.1381 -0.1872  0.0073
    1WF      WF66057  18.541   8.281   8.708 -0.0144 -0.0144 -0.3645
    1WF      WF66058   0.802  14.274   2.732  0.0290  0.0322  0.2301
    1WF      WF66059   1.034   9.158   5.829  0.1064  0.3237 -0.0837
    1WF      WF66060  28.245  24.984   9.083  0.3222 -0.2270  0.0279
    1WF      WF66061   1.188   0.319   8.088  0.3415 -0.0144 -0.2204
    1WF      WF66062  25.748  15.309   8.596 -0.0950 -0.3699  0.2387
    1WF      WF66063   9.673  11.779   3.154  0.1137 -0.1391 -0.0378
    1WF      WF66064  15.738   4.754   2.000 -0.1219 -0.0844 -0.0023
    1WF      WF66065  12.798  11.670   7.981  0.0401  0.0922  0.0747
    1WF      WF66066  25.478  16.853   0.537 -0.0482 -0.2503  0.1565
    1WF      WF66067   6.157  27.116   9.093 -0.1730 -0.2582  0.0394
    1WF      WF66068  13.584  29.014   1.896  0.1141 -0.1017 -0.4059
    1WF      WF66069   0.971  16.276   9.267  0.1418  0.0418 -0.0828
    1WF      WF66070   3.383   2.373   0.359 -0.0668  0.2576 -0.1950
    1WF      WF66071   3.825  12.688   0.892 -0.2369  0.1147 -0.0326
    1WF      WF66072  17.313  24.605   1.977  0.1262  0.2936  0.1681
    1WF      WF66073  13.749  19.589   0.813  0.3450 -0.1672  0.1699
    1WF      WF66074  20.602   9.478   1.478 -0.1044  0.1123 -0.0490
    1WF      WF66075  29.401   9.361   1.459  0.1370  0.0155 -0.1739
    1WF      WF66076  28.317  28.592   0.094  0.1439 -0.2442 -0.1431
    1WF      WF66077  27.104  17.588   8.304 -0.0077 -0.0242 -0.2391
    1WF      WF66078  16.190  22.825   9.034 -0.2601  0.1534  0.1409
    1WF      WF66079  29.187  15.080   0.696  0.0130  0.1734  0.4492
    1WF      WF66080  24.271  15.309   6.649 -0.0962  0.3331  0.0628
    1WF      WF66081  14.050   8.740   7.465  0.1401 -0.0926  0.1054
    1WF      WF66082  26.347   5.653   3.318  0.0302  0.0464 -0.0059
    1WF      WF66083  13.885  12.250   1.693 -0.2176 -0.2908  0.2071
    1WF      WF66084  19.480  20.238   8.466  0.0819  0.0868  0.0310
    1WF      WF66085   2.114  12.803   9.380  0.5304 -0.1893 -0.1662
    1WF      WF66086  21.342   2.522   7.331 -0.0091  0.2041  0.0627
    1WF      WF66087  13.354  24.958   0.914  0.0122 -0.0620  0.0764
    1WF      WF66088  21.958   2.898   8.986 -0.1024  0.0747 -0.1556
    1WF      WF66089   3.007   6.784   9.150  0.0709  0.2295  0.0124
    1WF      WF66090  13.111  28.921   1.819  0.1585 -0.2249 -0.1159
    1WF      WF66091  11.856  15.954   1.273 -0.0515  0.2629 -0.0939
    1WF      WF66092   6.613  22.239   8.745 -0.2147  0.0003  0.0954
    1WF      WF66093   8.450  27.527   7.548  0.0976 -0.1502  0.3431
    1WF      WF66094  21.864   3.991   8.031  0.0694 -0.0066 -0.0271
    1WF      WF66095   2.034  15.937   1.688 -0.3258 -0.1899  0.1630
    1WF      WF66096  26.422   6.848   1.007  0.1082  0.0494  0.1691
    1WF      WF66097  15.410  24.658   0.399 -0.2788 -0.0529  0.1539
    1WF      WF66098  14.495  27.221   6.013 -0.0158 -0.3252 -0.0852
    1WF      WF66099  15.320  19.709   8.727  0.1721  0.2760  0.1182
    1WF      WF66100  13.332   9.606   3.342 -0.0829 -0.0689  0.2220
    1WF      WF66101  29.202  16.256   9.135 -0.0819  0.1143 -0.1224
    1WF      WF66102  26.160  22.808   8.725  0.0014  0.0937  0.1288
    1WF      WF66103  27.274  28.192   0.341 -0.4421 -0.4213 -0.0043
    1WF      WF66104  29.856  11.501   0.517 -0.4600  0.1328  0.1728
    1WF      WF66105  24.352   3.243   3.641  0.1990 -0.1751 -0.1274
    1WF      WF66106  19.773  15.285   0.097 -0.3589  0.4264 -0.0585
    1WF      WF66107  20.928   6.992   1.332  0.2725 -0.2328 -0.0930
    1WF      WF66108  13.200  13.780   7.761  0.1327 -0.1307 -0.0415
    1WF      WF66109  23.789  24.535   6.333 -0.1627  0.0825  0.1782
    1WF      WF66110  19.910  25.263   9.404 -0.1408 -0.1865 -0.0120
    1WF      WF66111  26.651  25.551   1.982  0.1203  0.1265  0.0086
    1WF      WF66112  11.059  26.124   1.394  0.0000  0.0413 -0.0084
    1WF      WF66113   4.798  15.239   7.252 -0.0761  0.0614 -0.1789
    1WF      WF66114   3.574  15.896   3.028  0.0593 -0.0349  0.2492
    1WF      WF66115   8.414  10.822   7.690 -0.1290 -0.0515 -0.3187
    1WF      WF66116   7.089  23.672   0.903 -0.2480  0.1484 -0.0111
    1WF      WF66117  26.761  23.704   2.087  0.0454  0.0110  0.0276
    1WF      WF66118   3.832  15.095   2.711 -0.0888  0.0703  0.0313
    1WF      WF66119  17.402  14.811   2.849  0.0632 -0.3811 -0.2863
    1WF      WF66120   4.154   1.551   2.936  0.1828  0.1765  0.0650
    1WF      WF66121  29.116  22.776   8.289  0.0709 -0.1218  0.0463
    1WF      WF66122  25.981   6.740   1.742  0.1393 -0.1464 -0.0454
    1WF      WF66123  11.778  16.433   1.304  0.2214 -0.1566 -0.0632
    1WF      WF66124   2.847   8.935   7.973 -0.3124 -0.2641  0.0775
    1WF      WF66125  28.988  10.306   7.592 -0.0987 -0.1405  0.2001
    1WF      WF66126  24.359  22.500   1.295 -0.0881 -0.3456  0.2325
    1WF      WF66127  19.362   7.916   0.775 -0.2844 -0.0432  0.2381
    1WF      WF66128  23.359  10.855   0.693  0.0011 -0.0727 -0.2497
    1WF      WF66129  16.673  17.552   7.767  0.0198 -0.1571 -0.0139
    1WF      WF66130   8.773  27.311   7.265  0.0236 -0.0754 -0.1687
    1WF      WF66131  13.691  25.937   5.772  0.0229 -0.0161  0.1171
    1WF      WF66132   8.171  23.163   6.723 -0.1977  0.1311  0.0527
    1WF      WF66133  21.859   4.338   1.478 -0.1292 -0.0441  0.0245
    1WF      WF66134  10.030  27.839   0.379 -0.2657  0.2820  0.0287
    1WF      WF66135  20.519  14.937   0.613  0.1566  0.2769  0.0511
    1WF      WF66136  12.161   4.063   0.200  0.0769 -0.0598  0.0366
    1WF      WF66137   3.220  13.433   0.584  0.4812 -0.1413  0.0394
    1WF      WF66138  16.811  25.197   7.531 -0.0684  0.1383 -0.1655
    1WF      WF66139  14.978  13.398   8.927  0.3294  0.0962  0.0321
    1WF      WF66140  15.307  25.730   0.985 -0.2452 -0.1706 -0.0774
    1WF      WF66141  20.707  16.809   0.878  0.1632  0.0771  0.1052
    1WF      WF66142  29.843  11.276   9.366  0.0639 -0.1628  0.2557
    1WF      WF66143  22.065   7.981   7.580  0.0705 -0.1785  0.0524
    1WF      WF66144  25.244  29.757   9.350 -0.1376  0.0618 -0.1805
    1WF      WF66145  29.625   6.820   8.424  0.4258  0.0134  0.1948
    1WF      WF66146  23.353  10.167   9.193 -0.0427 -0.0576  0.0928
    1WF      WF66147   5.355  25.603   2.102  0.0260  0.0015  0.2111
    1WF      WF66148  20.306   9.916   7.255 -0.1524 -0.1579 -0.1485
    1WF      WF66149  13.402  11.603   9.483 -0.1906  0.0755 -0.0219
    1WF      WF66150   0.487  24.511   0.721  0.0212 -0.2700  0.1133
    1WF      WF66151  22.745  20.551   8.750  0.2043 -0.2180 -0.2434
    1WF      WF66152  19.871   4.142   9.058 -0.0352 -0.2604  0.2793
    1WF      WF66153   4.215   7.856   2.021 -0.1387 -0.0649  0.1689
    1WF      WF66154  18.754   6.968   1.155 -0.0884  0.0357  0.0624
    1WF      WF66155  21.929   2.169   0.159 -0.2690  0.1934  0.3244
    1WF      WF66156  21.836   8.966   0.356  0.0787  0.2566  0.1875
    1WF      WF66157  22.911   0.196   9.364 -0.0578 -0.0398 -0.0865
    1WF      WF66158   7.975  12.833   9.286  0.0487 -0.1182 -0.1843
    1WF      WF66159   9.237  17.017   6.541 -0.2187  0.2377  0.3130
    1WF      WF66160  15.359  25.813   1.504  0.0709 -0.0412  0.3202
    1WF      WF66161  14.267  25.809   7.530 -0.2447  0.2305  0.0559
    1WF      WF66162  22.849  19.575   7.438 -0.2074  0.0069  0.0919
    1WF      WF66163  19.498   3.823   9.153 -0.2637 -0.1119 -0.2569
    1WF      WF66164   3.958  19.323   9.429  0.1197  0.0070  0.0337
    1WF      WF66165  22.286  21.428   0.457  0.2173 -0.0334  0.0218
    1WF      WF66166  27.733  10.558   1.138  0.1649  0.5585 -0.0459
    1WF      WF66167  29.197  25.310   2.429 -0.1635  0.1478 -0.1016
    1WF      WF66168   2.217   3.272   0.177  0.4533  0.1073 -0.1997
    1WF      WF66169  12.587   2.037   0.273  0.1339  0.2344  0.2916
    1WF      WF66170   2.948  22.315   0.184  0.3428 -0.1222 -0.0507
    1WF      WF66171  11.921  25.950   7.308 -0.2318 -0.2071  0.0832
    1WF      WF66172   8.715  20.748   8.145  0.2352 -0.0871  0.1923
    1WF      WF66173   3.039   2.291   6.604  0.0239  0.1102  0.0272
    1WF      WF66174   7.002  19.849   8.754  0.0525 -0.0531 -0.1061
    1WF      WF66175  22.090   2.480   0.596  0.0086  0.0986 -0.0761
    1WF      WF66176  11.964  10.123   1.459 -0.1358 -0.1019 -0.0033
    1WF      WF66177  26.299  24.664   6.475 -0.1240 -0.0217  0.2840
    1WF      WF66178  25.553   1.924   1.783 -0.1618  0.1368  0.0727
    1WF      WF66179   2.605   1.509   1.591 -0.0085 -0.4251  0.2483
    1WF      WF66180  13.354   7.739   2.062 -0.1363  0.0905  0.1333
    1WF      WF66181   4.230   2.331   1.619 -0.0480  0.0949  0.0780
    1WF      WF66182  28.378   7.519   1.184 -0.2792  0.0824 -0.0033
    1WF      WF66183   2.714  19.326   8.575  0.0764  0.0971 -0.0682
    1WF      WF66184   2.771  29.846   8.152  0.2887  0.0074 -0.2277
    1WF      WF66185   2.526   6.863   8.936  0.2485 -0.4402  0.0261
    1WF      WF66186  10.099   9.393   1.591  0.3201  0.1103 -0.3835
    1WF      WF66187  25.823  29.819   0.898 -0.0037  0.2174 -0.0874
    1WF      WF66188   7.868   0.814   8.402 -0.1005  0.4230 -0.1806
    1WF      WF66189   1.540  27.537   6.946  0.1082  0.2246  0.2194
    1WF      WF66190  11.702  25.883   8.379  0.2285 -0.2999  0.0333
    1WF      WF66191   2.562  10.599   1.021 -0.1589 -0.2546  0.0312
    1WF      WF66192   8.876   5.786   9.293  0.3060 -0.2656 -0.1071
    1WF      WF66193  29.498  23.910   7.964  0.0380 -0.1793 -0.1958
    1WF      WF66194   9.674   9.276   9.205 -0.0620 -0.3772 -0.0470
    1WF      WF66195  13.677  19.032   1.124  0.3178  0.0660  0.2025
    1WF      WF66196  19.409  18.254   0.950 -0.0308 -0.3750 -0.2919
    1WF      WF66197  12.869  27.811   0.454 -0.0374 -0.1807  0.0370
    1WF      WF66198  17.275  20.680   0.981 -0.3083  0.1318 -0.3400
    1WF      WF66199   3.607   2.799   0.189  0.1323  0.1047  0.0858
    1WF      WF66200  12.574   8.592   0.542  0.2037  0.1257  0.1681
    1WF      WF66201   8.442  19.745   7.496  0.2589  0.4255  0.2420
    1WF      WF66202  15.128  15.494   1.338 -0.1139 -0.0310 -0.1096
    1WF      WF66203  13.261   7.318   2.338  0.1471 -0.0518  0.0227
    1WF      WF66204  20.562   5.899   1.236 -0.0193  0.3662  0.0484
    1WF      WF66205  11.517  22.667   0.193  0.0162 -0.0063  0.0668
    1WF      WF66206  21.755   2.253   7.298  0.0561  0.0824 -0.0308
    1WF      WF66207   2.505   7.201   1.116 -0.0274  0.1780 -0.1120
    1WF      WF66208  28.196  22.930   0.652 -0.2441  0.0921 -0.0040
    1WF      WF66209  13.388   3.650   2.190  0.0776 -0.0426 -0.0779
    1WF      WF66210  10.061   4.530   0.548 -0.3243 -0.0997 -0.3935
    1WF      WF66211  20.098  20.036   9.337  0.3140  0.0765 -0.0695
    1WF      WF66212   7.548  26.445   7.196 -0.2715  0.1357  0.0306
    1WF      WF66213   7.188  26.841   8.687 -0.1780 -0.0625 -0.0288
    1WF      WF66214  10.590  16.737   7.861 -0.2163  0.0294 -0.3255
    1WF      WF66215  29.095   0.138   7.742 -0.1328 -0.0067 -0.0328
    1WF      WF66216  15.147  27.532   6.517  0.1301 -0.4878  0.1529
    1WF      WF66217  15.213   3.454   1.192 -0.1986 -0.1844  0.3087
    1WF      WF66218   3.009  26.735   0.248 -0.1432  0.1820 -0.1348
    1WF      WF66219  21.515   3.392   2.416 -0.1209 -0.0094 -0.2964
    1WF      WF66220  24.965   1.651   8.522 -0.0399 -0.0136 -0.2055
    1WF      WF66221  24.415  16.381   0.671 -0.0017 -0.1200 -0.0024
    1WF      WF66222  14.103  11.980   8.132  0.1304  0.2974 -0.2537
    1WF      WF66223  13.369  21.919   7.808 -0.5694 -0.1903  0.1695
    1WF      WF66224   9.081   2.344   1.243 -0.2217  0.2304  0.2006
    1WF      WF66225  27.548  11.802   0.628  0.0328  0.1879 -0.0831
    1WF      WF66226  19.769  25.999   7.817 -0.3056 -0.0866  0.0681
    1WF      WF66227   0.802  10.658   0.763 -0.0261  0.0901 -0.0925
    1WF      WF66228  11.468  22.108   0.390 -0.2793 -0.0539  0.0354
    1WF      WF66229   2.154  16.485   2.990 -0.0723 -0.1892 -0.1557
    1WF      WF66230   0.528  13.707   7.984  0.1882 -0.0695 -0.1924
    1WF      WF66231  11.059  16.732   9.423 -0.0183  0.3504  0.1978
    1WF      WF66232  24.868  26.910   0.588 -0.0704  0.1032  0.3744
    1WF      WF66233   3.524  19.472   3.222 -0.0644 -0.2122  0.1054
    1WF      WF66234   4.136  24.848   7.080 -0.1080  0.1932 -0.0911
    1WF      WF66235  26.393  24.892   0.146  0.2570  0.1882  0.1192
    1WF      WF66236  20.043  26.365   7.520  0.1146  0.3218 -0.1614
    1WF      WF66237   2.074  18.085   0.726 -0.0519  0.0809  0.1512
    1WF      WF66238   2.430  15.472   1.808 -0.0584  0.1109 -0.1008
    1WF      WF66239   1.820  11.244   1.145 -0.3987  0.1035 -0.0099
    1WF      WF66240  20.507   2.247   0.065 -0.2249  0.1817  0.0580
    1WF      WF66241  28.358  22.330   1.389  0.1134 -0.1188  0.1314
    1WF      WF66242  13.579   9.566   8.859 -0.0357  0.1042 -0.1057
    1WF      WF66243   2.159  29.425   8.568 -0.1405  0.2035 -0.1583
    1WF      WF66244  18.726  13.698   7.718 -0.3144 -0.0030  0.0464
    1WF      WF66245  22.055  22.043   0.389 -0.0821 -0.0418 -0.2298
    1WF      WF66246   6.947   7.747   1.388 -0.0040  0.1653  0.1999
    1WF      WF66247   2.925  10.681   0.573  0.1000  0.0407  0.1025
    1WF      WF66248  29.333  17.109   2.062 -0.2571 -0.2682  0.1356
    1WF      WF66249  20.309   3.272   8.430 -0.2941  0.0691  0.2392
    1WF      WF66250  22.781  22.759   7.124 -0.0615 -0.2776 -0.3144
    1WF      WF66251  24.606   7.355   0.394  0.0484 -0.0411 -0.5726
    1WF      WF66252  10.465  20.267   8.047 -0.1342 -0.1023  0.1482
    1WF      WF66253   6.752  27.316   1.502 -0.2193 -0.1333  0.1130
    1WF      WF66254  11.621   4.582   6.919 -0.3388  0.2335  0.0698
    1WF      WF66255  29.637   7.896   9.259 -0.0683 -0.0417 -0.3349
    1WF      WF66256  28.189  12.474   1.405  0.1694  0.0801 -0.3657
    1WF      WF66257  23.083   5.025   7.228  0.1420  0.0734 -0.1982
    1WF      WF66258   6.598  27.579   8.835  0.2857 -0.1416  0.4663
    1WF      WF66259  16.204  16.637   7.893  0.0278 -0.0163 -0.1474
    1WF      WF66260  10.363  28.226   0.315 -0.0830 -0.2384  0.3815
    1WF      WF66261  27.888  20.420   1.177  0.1071  0.3302 -0.0564
    1WF      WF66262   9.041  14.977   8.275  0.2786 -0.3761  0.0547
    1WF      WF66263  11.680  13.486   7.778  0.1614 -0.1320 -0.1436
    1WF      WF66264  24.666  18.150   0.126 -0.3557  0.2333 -0.2054
    1WF      WF66265  24.320  18.278   8.659  0.1467  0.0401 -0.3556
    1WF      WF66266   8.655  19.196   7.523  0.4165  0.0384 -0.3173
    1WF      WF66267   9.649  17.018   1.465  0.0467  0.3431  0.0614
    1WF      WF66268  16.307   5.172   1.150 -0.2031  0.1402 -0.0153
    1WF      WF66269   5.768   7.239   9.146 -0.1151 -0.1102 -0.0334
    1WF      WF66270  14.538  23.925   7.308  0.0013 -0.0463 -0.1263
    1WF      WF66271   9.107   5.513   8.936  0.4084  0.0875 -0.0018
    1WF      WF66272  26.424  17.785   8.532 -0.2948 -0.0269  0.0052
    1WF      WF66273   5.176   1.715   7.936  0.3192  0.0828  0.0568
    1WF      WF66274  23.678  11.623   9.448 -0.1794  0.3013  0.1686
    1WF      WF66275  27.927  21.974   1.189 -0.0194 -0.1591  0.1162
    1WF      WF66276  29.633  17.707   2.112  0.1592  0.2058  0.0590
    1WF      WF66277  28.131  17.672   8.493 -0.0104 -0.0581  0.1366
    1WF      WF66278  15.790  20.910   1.911  0.2448 -0.0821  0.1300
    1WF      WF66279  18.163  12.519   1.100  0.0028  0.2171 -0.0504
    1WF      WF66280  25.028  21.484   0.489  0.1073 -0.1217  0.3567
    1WF      WF66281  26.711  19.831   0.787  0.0258  0.0714  0.2590
    1WF      WF66282  22.974  21.328   7.891  0.1771 -0.3180  0.1672
    1WF      WF66283  18.839  19.927   7.698 -0.4055  0.2788 -0.0748
    1WF      WF66284  14.839  20.524   9.476 -0.0656  0.1520  0.0217
    1WF      WF66285   5.170   6.805   0.820 -0.5276  0.0271 -0.0054
    1WF      WF66286   0.627  15.860   0.066  0.0671 -0.0677  0.1106
    1WF      WF66287   3.471   0.365   1.472 -0.2823  0.1417 -0.0907
    1WF      WF66288   5.196  21.529   6.747 -0.3080 -0.0500 -0.1118
    1WF      WF66289  14.853  28.317   8.984 -0.1205  0.0578 -0.1216
    1WF      WF66290  17.626  24.957   8.601 -0.1424 -0.1735  0.0137
    1WF      WF66291  27.589  25.806   2.269  0.2853 -0.1134 -0.0862
    1WF      WF66292  21.837  16.745   0.719 -0.1386  0.1064  0.0934
    1WF      WF66293  18.945  12.857   1.153  0.0815 -0.1933  0.0681
    1WF      WF66294  25.924  22.548   0.731  0.3826  0.1323  0.1447
    1WF      WF66295  11.447  18.106   7.877 -0.1822 -0.1406 -0.0256
    1WF      WF66296   2.309   7.765   8.155  0.2540 -0.1210  0.1269
    1WF      WF66297  17.392   0.335   1.328 -0.2601  0.2524  0.1310
    1WF      WF66298   7.731  11.684   1.499  0.1026  0.4267 -0.0367
    1WF      WF66299  14.619   4.062   2.620 -0.1109 -0.2016 -0.1321
    1WF      WF66300   7.468  12.131   8.697 -0.1060 -0.1101 -0.0568
    1WF      WF66301  21.427  22.596   0.896  0.0207  0.1760 -0.0024
    1WF      WF66302   2.622  12.525   7.187 -0.0229 -0.0917 -0.0216
    1WF      WF66303   6.357  21.510   0.398  0.0693  0.1848  0.3456
    1WF      WF66304  12.643  28.728   6.593  0.0266  0.0499  0.2228
    1WF      WF66305  15.048  16.817   0.642  0.0303  0.0338  0.1059
    1WF      WF66306   4.585  19.341   8.738  0.2906 -0.3091  0.3051
    1WF      WF66307   5.196  23.470   0.199  0.2728 -0.1372 -0.1429
    1WF      WF66308  10.622   0.906   2.778  0.1446 -0.3285 -0.0259
    1WF      WF66309  11.947   8.388   8.616  0.0130 -0.1474 -0.1153
    1WF      WF66310  15.341   7.594   0.754  0.0760  0.4481  0.0304
    1WF      WF66311  18.662   6.688   0.037  0.0982 -0.0843 -0.1411
    1WF      WF66312   5.904   6.787   9.308  0.0216  0.0708  0.3388
    1WF      WF66313  16.187  23.359   8.827  0.1229 -0.1088 -0.0716
    1WF      WF66314  26.884  25.365   7.917 -0.0775 -0.2140  0.1411
    1WF      WF66315  22.537   2.681   0.715 -0.0598  0.2988  0.1531
    1WF      WF66316  21.551  17.640   0.473 -0.2422  0.1016  0.2761
    1WF      WF66317  15.427  25.195   0.489  0.0268 -0.1649 -0.1310
    1WF      WF66318  20.271  11.842   8.836 -0.1303 -0.0392 -0.1271
    1WF      WF66319  14.565  19.810   0.279 -0.3113 -0.0208  0.2001
    1WF      WF66320   3.603   8.029   8.002 -0.1029 -0.1479 -0.4233
    1WF      WF66321   7.529  13.778   1.297 -0.0492  0.2023  0.2357
    1WF      WF66322  12.245  13.524   7.713  0.1098  0.1044  0.1468
    1WF      WF66323   3.433  18.790   1.283  0.1445  0.2354  0.2274
    1WF      WF66324   7.326   5.985   0.184  0.1228 -0.3494  0.2182
    1WF      WF66325   0.128   1.521   6.129  0.2330 -0.4047 -0.1784
    1WF      WF66326   8.739   1.811   2.317  0.0763  0.1077  0.3719
    1WF      WF66327  24.318  25.859   8.328  0.2619 -0.0109 -0.2032
    1WF      WF66328   1.267   5.414   8.659  0.0709 -0.2523  0.1984
    1WF      WF66329  24.684  20.954   0.665 -0.0949  0.0846 -0.4554
    1WF      WF66330   1.867  12.855   8.984  0.1183 -0.0176  0.3820
    1WF      WF66331   6.834   0.340   0.113  0.3455  0.2213  0.0738
    1WF      WF66332   5.689  10.863   1.715 -0.0165  0.2287  0.0968
    1WF      WF66333   1.627   9.428   7.985  0.0604  0.1796 -0.2089
    1WF      WF66334  17.445  16.547   1.451 -0.0046 -0.0855 -0.2915
    1WF      WF66335   9.722  10.697   8.079  0.0379 -0.6168  0.3240
    1WF      WF66336  21.897  19.368   9.323 -0.1046  0.0813 -0.3917
    1WF      WF66337  29.520  22.567   8.068 -0.0187  0.3240 -0.0127
    1WF      WF66338  12.092  27.738   8.739  0.0603 -0.0905 -0.2518
    1WF      WF66339  23.745  29.412   0.670 -0.2238  0.0160  0.2860
    1WF      WF66340  29.209   8.125   0.476  0.0742  0.0468  0.2778
    1WF      WF66341  12.182   0.229   0.244  0.2024  0.0940  0.1102
    1WF      WF66342  26.857  16.941   6.028  0.1337 -0.0093  0.1186
    1WF      WF66343  20.643  12.351   2.598 -0.0824  0.0164 -0.0301
    1WF      WF66344  28.962   7.268   9.021  0.3863  0.2622 -0.0617
    1WF      WF66345  29.449   3.813   1.562  0.1688  0.2131  0.1724
    1WF      WF66346  17.151  18.639   8.839 -0.0955  0.4265  0.1021
    1WF      WF66347  26.881  19.554   8.424  0.2234  0.2075  0.0057
    1WF      WF66348  22.017  14.180   8.168 -0.1269  0.0579  0.0986
    1WF      WF66349  27.228   5.709   8.701  0.2654  0.0017  0.2437
    1WF      WF66350  16.665  13.625   8.284  0.1872 -0.1777  0.1094
    1WF      WF66351  16.192  21.459   8.396  0.3324 -0.1835 -0.1356
    1WF      WF66352  12.529  11.742   8.465 -0.2973 -0.2405  0.0777
    1WF      WF66353  17.906   7.933   0.681  0.0984  0.0395 -0.2019
    1WF      WF66354   3.039  27.719   8.453  0.0121 -0.0847 -0.0718
    1WF      WF66355  15.130  13.938   0.705  0.3424  0.1311 -0.2260
    1WF      WF66356  12.828  24.815   1.131 -0.0499 -0.0538  0.0471
    1WF      WF66357   0.428   1.875   8.069 -0.1645  0.0675  0.2920
    1WF      WF66358  14.993  19.654   7.786 -0.0409  0.0010  0.1041
    1WF      WF66359  16.326  18.751   6.886  0.0803 -0.3012  0.0738
    1WF      WF66360  23.500  17.879   2.864 -0.0437 -0.2690  0.0681
    1WF      WF66361  10.288   8.425   0.481  0.0517  0.3224  0.0252
    1WF      WF66362   6.073   0.624   8.992 -0.0694 -0.1756 -0.3031
    1WF      WF66363  28.027  15.377   8.415 -0.1158  0.2089  0.0047
    1WF      WF66364  10.155   2.989   0.116 -0.2885  0.0589 -0.3850
    1WF      WF66365  11.172  24.730   0.755 -0.0148 -0.2230 -0.1902
    1WF      WF66366   7.235   9.067   6.979 -0.1906  0.0346  0.0351
    1WF      WF66367  29.682  16.620   7.636  0.2090 -0.1760  0.1005
    1WF      WF66368  22.670   1.700   3.832 -0.1523  0.0335 -0.1441
    1WF      WF66369  21.454  25.413   8.273  0.2510 -0.3001 -0.1024
    1WF      WF66370  23.044   7.579   8.743  0.1777 -0.0570  0.2005
    1WF      WF66371  19.321   5.720   2.355 -0.1072  0.2766  0.2030
    1WF      WF66372  27.828  29.522   0.333 -0.0034  0.0517  0.2672
    1WF      WF66373  29.606  23.373   1.770 -0.1656 -0.1385 -0.0451
    1WF      WF66374  19.433  25.914   7.334  0.0398 -0.0477  0.2583
    1WF      WF66375  12.257   7.392   4.126 -0.0596  0.2033  0.0915
    1WF      WF66376   7.578  26.732   8.394 -0.3526  0.0104  0.1586
    1WF      WF66377  15.454  29.316   1.147  0.1032  0.1092  0.0831
    1WF      WF66378  25.448  15.724   8.435  0.0115  0.0293 -0.1358
    1WF      WF66379  11.754  26.121   8.812  0.1739  0.0463 -0.0312
    1WF      WF66380  22.686  16.818   7.525  0.1826 -0.1078 -0.3651
    1WF      WF66381  29.394  20.467   0.803 -0.0511  0.2599 -0.1906
    1WF      WF66382   7.811  14.531   9.392 -0.1749 -0.1101 -0.0520
    1WF      WF66383  17.946  17.939   6.474  0.0129  0.1215 -0.1957
    1WF      WF66384  19.207   6.928   1.621 -0.0349 -0.1396 -0.2269
    1WF      WF66385   3.755  17.183   1.683 -0.2091 -0.0518  0.0834
    1WF      WF66386  11.414  16.320   6.902 -0.1477 -0.0267 -0.0858
    1WF      WF66387   5.097  29.771   1.418  0.0991  0.2642 -0.0853
    1WF      WF66388   3.138  18.120   2.988  0.5026  0.1206 -0.0744
    1WF      WF66389   5.298   4.893   2.020  0.0335 -0.1339 -0.0460
    1WF      WF66390  25.124   8.191   1.601  0.2165 -0.1357  0.1899
    1WF      WF66391   2.772  20.483   8.847 -0.0583 -0.3006 -0.0412
    1WF      WF66392  24.556  15.918   6.657  0.0115 -0.2651  0.1964
    1WF      WF66393   4.714  26.394   8.319  0.0923  0.0012  0.1339
    1WF      WF66394  26.681   0.028   2.384 -0.1453 -0.0413 -0.2603
    1WF      WF66395  17.948  22.843   0.289 -0.4798 -0.1346  0.3090
    1WF      WF66396  21.666  11.510   8.851  0.2746  0.3426  0.1691
    1WF      WF66397  22.011  17.536   8.642  0.0682  0.0088  0.4680
    1WF      WF66398  25.672   4.929   1.590 -0.0065  0.2588  0.1757
    1WF      WF66399  23.282  11.232   1.596  0.0546 -0.1927 -0.2207
    1WF      WF66400  14.379  21.634   8.642  0.0225 -0.2515  0.1241
    1WF      WF66401   9.663  17.957   0.934  0.2097 -0.1303  0.0423
    1WF      WF66402   5.257  21.661   0.768 -0.3077 -0.0437 -0.1115
    1WF      WF66403   2.538  26.894   9.007  0.1259  0.2344  0.0688
    1WF      WF66404   9.021   6.330   9.399  0.1347  0.0082 -0.1514
    1WF      WF66405  29.822  27.525   7.580 -0.0388  0.0772  0.0492
    1WF      WF66406   7.943   4.549   0.884 -0.3403 -0.2723  0.0389
    1WF      WF66407   2.936   9.849   6.540  0.1616 -0.1623  0.1444
    1WF      WF66408   7.882  26.181   6.827  0.1624  0.2300  0.1762
    1WF      WF66409   8.024   6.035   7.998 -0.1127  0.0331  0.0325
    1WF      WF66410   5.053  19.405   7.725 -0.0864  0.0118 -0.0654
    1WF      WF66411  29.832  27.961   0.767  0.1508  0.1487  0.3458
    1WF      WF66412  14.601  23.271   4.784  0.0578 -0.2335 -0.1064
    1WF      WF66413  29.296  29.490   7.699 -0.3152 -0.3524  0.0883
    1WF      WF66414  25.498   8.408   1.218  0.0072 -0.0674  0.2309
    1WF      WF66415  24.099  27.041   1.408  0.1024 -0.1439  0.0092
    1WF      WF66416  11.430  21.281   0.219 -0.2025  0.0361 -0.1755
    1WF      WF66417  10.299  27.714   1.444 -0.3818  0.0618 -0.3707
    1WF      WF66418  15.984  10.990   7.267  0.0666 -0.2291  0.1859
    1WF      WF66419   4.331   0.952   1.645 -0.2421  0.0088  0.0892
    1WF      WF66420  17.602  11.660   1.219 -0.0381  0.0851  0.3188
    1WF      WF66421   4.159  19.704   7.994 -0.1898 -0.1694 -0.0111
    1WF      WF66422   3.580   6.698   9.249 -0.0557  0.1859 -0.2899
    1WF      WF66423  25.608  14.871   8.822  0.2271  0.1202  0.0391
    1WF      WF66424  14.550  18.555   7.872  0.1595 -0.1364 -0.0053
    1WF      WF66425  26.102   1.581   8.887 -0.1728 -0.2219 -0.2322
    1WF      WF66426  19.280  29.691   8.393  0.1108 -0.0952  0.0469
    1WF      WF66427   8.728   9.948   0.347  0.3624 -0.2186 -0.1081
    1WF      WF66428   9.037  10.061   0.766  0.0653  0.0549 -0.2958
    1WF      WF66429   7.361  12.483   7.150 -0.3465 -0.0369  0.0469
    1WF      WF66430  11.511   0.977   2.227 -0.2785  0.2852 -0.0648
    1WF      WF66431   9.078  13.558   7.804 -0.0650  0.0702 -0.1324
    1WF      WF66432  17.164   7.742   2.329  0.1201  0.5031 -0.1443
    1WF      WF66433  12.588  21.143   8.989 -0.0346 -0.0568 -0.2944
    1WF      WF66434  25.130  22.637   7.549 -0.2197 -0.1282 -0.1806
    1WF      WF66435  26.497  22.408   3.404  0.1782 -0.2178 -0.0714
    1WF      WF66436  15.338  26.165   1.824 -0.0429 -0.3324  0.2213
    1WF      WF66437  23.118   0.013   1.466 -0.3764 -0.0353  0.1246
    1WF      WF66438  27.938  28.929   7.894  0.1596 -0.1736  0.1175
    1WF      WF66439  20.866  23.064   6.763  0.2263  0.0662  0.2154
    1WF      WF66440   4.901  13.254   1.205 -0.2911  0.0932 -0.0915
    1WF      WF66441  26.591  17.323   8.195 -0.0409  0.1171  0.1748
    1WF      WF66442  28.235  27.907   1.064  0.0127  0.0502 -0.2057
    1WF      WF66443  20.869  12.302   8.303  0.0572  0.1257  0.1349
    1WF      WF66444   3.742  29.706   8.946  0.4065 -0.1691  0.0667
    1WF      WF66445   5.751  18.669   1.121  0.1960 -0.1377  0.0355
    1WF      WF66446  20.938   9.071   1.365  0.0405 -0.0516 -0.0842
    1WF      WF66447  13.186  28.803   0.393 -0.0713 -0.0078 -0.1154
    1WF      WF66448  10.356   6.090   9.160 -0.2603  0.0363  0.0575
    1WF      WF66449  29.100   6.565   0.323 -0.0284 -0.1606 -0.2635
    1WF      WF66450  19.898  22.996   7.282  0.0328  0.0472  0.2878
    1WF      WF66451  25.874  21.743   1.381  0.1354  0.2156  0.0288
    1WF      WF66452  21.474  22.800   7.711  0.1689  0.0151  0.0779
    1WF      WF66453  29.740   9.008   7.131 -0.0535  0.0371 -0.0475
    1WF      WF66454  27.841  13.895   8.266 -0.0030  0.0003  0.0104
    1WF      WF66455   0.074  21.068   0.031  0.1649  0.1678  0.0575
    1WF      WF66456   5.961   0.362   7.862 -0.1653 -0.0778  0.2450
    1WF      WF66457   4.408  17.515   9.268 -0.0975  0.2350  0.3568
    1WF      WF66458  28.076  10.400   8.120 -0.0010 -0.1150 -0.2694
    1WF      WF66459   2.845  27.088   9.349 -0.2922 -0.1963  0.0551
    1WF      WF66460  29.768  15.178   7.824 -0.1622  0.0637  0.1386
    1WF      WF66461   0.573   2.019   7.613 -0.0349  0.0589  0.2223
    1WF      WF66462  17.283  29.120   0.716  0.1208  0.0856  0.1757
    1WF      WF66463  27.161  22.347   7.465 -0.0624 -0.2017  0.1448
    1WF      WF66464   3.561   0.416   1.993 -0.0168  0.0924 -0.1804
    1WF      WF66465  15.966  15.366   0.227  0.0554 -0.2856  0.0762
    1WF      WF66466  18.970  24.870   8.738  0.1398 -0.1003 -0.2236
    1WF      WF66467  13.354  19.247   0.817 -0.2415  0.1336  0.0114
    1WF      WF66468  12.705  15.589   0.420  0.1323 -0.0743  0.1066
    1WF      WF66469  15.383  25.694   0.516 -0.2349  0.5922 -0.1569
    1WF      WF66470  29.191   0.378   0.619 -0.1257 -0.1076 -0.2085
    1WF      WF66471   4.301  17.723   8.151 -0.1443 -0.0683  0.1128
    1WF      WF66472   1.822   2.003   0.425  0.1117  0.1065  0.0651
    1WF      WF66473   5.146  15.548   7.492  0.2977  0.3348  0.1028
    1WF      WF66474   8.586  21.657   8.252  0.2013  0.1814 -0.0309
    1WF      WF66475  23.279   3.880   0.542  0.3531 -0.1215  0.1122
    1WF      WF66476   4.688   5.417   6.976 -0.1541 -0.2123 -0.1717
    1WF      WF66477  23.978  25.491   8.386 -0.0832 -0.1179  0.2586
    1WF      WF66478  18.864  17.940   7.056 -0.0818 -0.2344  0.0890
    1WF      WF66479   7.316  24.061   1.194 -0.0672 -0.0482 -0.0313
    1WF      WF66480  11.284  22.694   6.427 -0.2196 -0.1084  0.1009
    1WF      WF66481   7.543  27.304   5.827  0.1352 -0.0704 -0.1826
    1WF      WF66482  19.451   8.488   0.905 -0.0831  0.1751  0.4998
    1WF      WF66483   9.839   4.454   1.990  0.0751  0.0528  0.2878
    1WF      WF66484  20.796   3.022   9.382 -0.3724  0.1723 -0.0517
    1WF      WF66485   0.277  22.519   0.527 -0.2157  0.0769 -0.1523
    1WF      WF66486   5.101  15.197   8.512 -0.0257  0.1418 -0.0657
    1WF      WF66487  24.985  25.217   0.108  0.1226 -0.0159 -0.1242
    1WF      WF66488  29.454  16.833   1.601  0.0213 -0.2042 -0.0983
    1WF      WF66489  17.964  17.207   0.161  0.0479 -0.0115  0.0175
    1WF      WF66490   7.977   8.245   1.270 -0.2783  0.0736  0.1517
    1WF      WF66491  17.677  16.779   0.781  0.1169  0.1367 -0.1372
    1WF      WF66492  13.846  11.513   0.586 -0.3951 -0.1909  0.1270
    1WF      WF66493   2.522   4.869   8.502 -0.0021 -0.1710 -0.2296
    1WF      WF66494  21.085   5.444   1.458 -0.2366 -0.3191 -0.1030
    1WF      WF66495  28.299  26.501   0.137 -0.3384 -0.2634  0.2771
    1WF      WF66496   4.834   5.322   1.094 -0.0160 -0.1795 -0.0487
    1WF      WF66497  13.130   3.072   1.654 -0.1476 -0.2204 -0.2164
    1WF      WF66498   7.133  27.336   8.649  0.1525  0.1620  0.0065
    1WF      WF66499  17.671  26.948   0.469 -0.1281 -0.2176 -0.1491
    1WF      WF66500   9.096  27.610   7.591  0.0382  0.2013  0.2381
    1WF      WF66501   9.281  17.745   0.798 -0.1448 -0.3121  0.1168
    1WF      WF66502  28.124   9.450   8.717 -0.0806  0.1402 -0.0151
    1WF      WF66503  19.151   6.860   9.530  0.2034 -0.0572 -0.0859
    1WF      WF66504  26.734  15.377   8.820 -0.2587 -0.1910 -0.0138
    1WF      WF66505  16.118  19.382   0.671  0.1179  0.1096  0.2381
    1WF      WF66506  24.177   6.519   2.060 -0.0027  0.0529  0.3913
    1WF      WF66507  25.674  16.701   1.018  0.1709 -0.0766 -0.1852
    1WF      WF66508  15.516   0.148   0.692  0.1656 -0.0221 -0.2238
    1WF      WF66509  10.634   3.904   9.250  0.2684 -0.3479  0.2678
    1WF      WF66510   1.555  14.006   1.294  0.0100 -0.0756 -0.2212
    1WF      WF66511   7.528  15.745   3.070 -0.0270 -0.2744 -0.0144
    1WF      WF66512  18.537   1.485   2.390  0.2112 -0.1462  0.1091
    1WF      WF66513  18.400   9.540   0.637 -0.0090 -0.1405 -0.0250
    1WF      WF66514  27.287   5.260   0.144  0.2275 -0.0259 -0.2592
    1WF      WF66515  13.288  13.107   1.977 -0.2012 -0.0229 -0.1439
    1WF      WF66516  15.251  18.436   8.754 -0.0131  0.1450 -0.0188
    1WF      WF66517   0.081  29.805   0.107  0.2306 -0.0149  0.0352
    1WF      WF66518  27.693  25.297   6.140  0.2277  0.0986 -0.1808
    1WF      WF66519  28.400   7.397   0.705 -0.3196  0.2497  0.0622
    1WF      WF66520   2.095  25.490   7.369 -0.0324  0.0600  0.1627
    1WF      WF66521   8.321  10.499   7.321  0.0421 -0.0459 -0.0082
    1WF      WF66522  12.389  10.939   6.533 -0.0945  0.1840  0.0157
    1WF      WF66523  11.109   7.884   8.980  0.1088 -0.0672  0.1013
    1WF      WF66524   3.507  14.732   8.416  0.1500  0.0349  0.2182
    1WF      WF66525   9.294  28.830   8.797 -0.0691 -0.0559 -0.0900
    1WF      WF66526  16.612  15.849   7.625 -0.0591  0.0315  0.1168
    1WF      WF66527  26.635  28.567   1.478  0.1171 -0.0402 -0.0837
    1WF      WF66528   6.442  10.069   3.013  0.0651 -0.0981  0.0135
    1WF      WF66529  27.378  26.497   9.376 -0.3167 -0.1070  0.2898
    1WF      WF66530  17.909  16.479   1.924  0.0338  0.0983  0.1564
    1WF      WF66531  21.991   0.513   2.060 -0.2152 -0.5478 -0.1174
    1WF      WF66532  17.024  28.528   1.348  0.1474 -0.0585  0.0525
    1WF      WF66533  18.586  12.179   0.081 -0.0269 -0.1605  0.0151
    1WF      WF66534  22.096   5.408   7.872 -0.2761 -0.1918  0.0805
    1WF      WF66535  15.602   0.413   0.190 -0.0032  0.0033  0.1404
    1WF      WF66536  17.192   1.521   1.763  0.0606 -0.0194 -0.2453
    1WF      WF66537   3.806  28.878   8.137  0.1710  0.0326 -0.0783
    1WF      WF66538   0.848  21.284   2.143  0.1263  0.4110 -0.0829
    1WF      WF66539  10.904  29.267   3.212  0.0159 -0.0263  0.1110
    1WF      WF66540   0.365   1.711   8.593 -0.1280 -0.0876  0.0881
    1WF      WF66541  16.347  29.615   9.327  0.1214  0.0374  0.0001
    1WF      WF66542   6.390  22.921   7.122 -0.4617 -0.1145 -0.0868
    1WF      WF66543  19.931   7.982   1.878 -0.1688  0.2261 -0.0244
    1WF      WF66544  13.751   8.828   1.786 -0.2042  0.1393  0.0902
    1WF      WF66545  20.399  16.510   1.224  0.0765  0.2781  0.1599
    1WF      WF66546  17.283   5.736   0.179 -0.2493 -0.0069 -0.0939
    1WF      WF66547  12.940   2.708   1.958 -0.4564  0.3706  0.1716
    1WF      WF66548   4.791  10.601   0.995  0.0716 -0.3693  0.1630
    1WF      WF66549  13.820  10.380   8.300 -0.0909  0.0944  0.2659
    1WF      WF66550   4.052  28.341   9.068 -0.0911  0.1034  0.2513
    1WF      WF66551  15.545   2.786   9.487  0.1243  0.2870 -0.1445
    1WF      WF66552  23.857  18.390   8.504 -0.0358 -0.4761  0.0734
    1WF      WF66553   3.862  24.345   0.762  0.4608  0.0588  0.2308
    1WF      WF66554   5.578   8.349   0.075 -0.0640 -0.0859 -0.0956
    1WF      WF66555  13.350  19.927   7.490 -0.2547 -0.0023 -0.0290
    1WF      WF66556  10.930  15.527   8.092  0.0102 -0.2063  0.0543
    1WF      WF66557  22.874   3.869   0.815 -0.0844  0.2006  0.0115
    1WF      WF66558  14.913  22.924   7.167 -0.2572  0.0655 -0.1171
    1WF      WF66559  13.316  15.907   9.224  0.0627  0.2307  0.1851
    1WF      WF66560  21.928  27.591   1.498 -0.0469  0.2383  0.1024
    1WF      WF66561   0.971  12.393   1.862 -0.2031 -0.0004 -0.0939
    1WF      WF66562   9.215  20.697   0.105 -0.2051  0.2676 -0.2808
    1WF      WF66563   3.200   9.520   6.294  0.1782  0.0117 -0.3179
    1WF      WF66564   3.710  12.886   2.143 -0.0684 -0.0815 -0.0012
    1WF      WF66565  17.394   0.367   0.009 -0.1203 -0.0227  0.0691
    1WF      WF66566   2.129  28.276   1.195  0.1382 -0.0471 -0.1147
    1WF      WF66567  20.588  22.770   1.143 -0.1540 -0.1892  0.2344
    1WF      WF66568   1.084  27.311   9.289 -0.0232 -0.0869 -0.0561
    1WF      WF66569  14.610  27.774   8.335 -0.0194 -0.1913 -0.1493
    1WF      WF66570   4.334  18.070   8.502 -0.1340  0.1684  0.0468
    1WF      WF66571   0.943   3.170   1.109  0.0816  0.4627 -0.0554
    1WF      WF66572  21.612  23.511   9.106 -0.0944  0.0056  0.0629
    1WF      WF66573  24.253  15.864   8.588  0.2608  0.3309 -0.2021
    1WF      WF66574  20.941   2.750   1.782 -0.0640  0.2813 -0.0502
    1WF      WF66575  25.821   5.658   8.538  0.1240  0.2862 -0.1738
    1WF      WF66576   4.084   6.640   8.035  0.2051 -0.2179  0.1141
    1WF      WF66577   1.720   8.336   8.642  0.2564  0.0068  0.1519
    1WF      WF66578  10.484  12.081   2.120 -0.0716 -0.4128  0.1254
    1WF      WF66579   8.418  19.930   0.012  0.5328  0.1225  0.0280
    1WF      WF66580  24.136  11.588   7.514 -0.0371  0.0935  0.0314
    1WF      WF66581  28.572  28.652   2.649 -0.0491  0.3912 -0.2778
    1WF      WF66582  17.733  24.532   8.177  0.2389 -0.2014 -0.0583
    1WF      WF66583  21.971  13.648   7.867 -0.0242 -0.0802 -0.1346
    1WF      WF66584  11.045   1.086   2.563  0.1989  0.0579  0.0517
    1WF      WF66585  13.372  26.957   8.644 -0.1205 -0.0079  0.2652
    1WF      WF66586   5.450  16.693   8.471  0.0200 -0.1017 -0.1724
    1WF      WF66587  20.593  11.751   2.721  0.0434 -0.1927 -0.1837
    1WF      WF66588  11.133  18.328   8.193 -0.0157 -0.2363  0.3146
    1WF      WF66589   0.570  23.624   7.213  0.0209  0.2883 -0.0973
    1WF      WF66590  12.954  13.559   2.720 -0.0277  0.2011 -0.0199
    1WF      WF66591   8.091  25.498   8.504 -0.2414 -0.0715  0.6093
    1WF      WF66592  12.248  10.564   1.449  0.1187  0.0180  0.3656
    1WF      WF66593  24.571  28.175   7.268 -0.2191  0.1589  0.3269
    1WF      WF66594  18.639  28.902   0.761 -0.0363  0.1868 -0.5001
    1WF      WF66595   9.605  26.993   6.499  0.0054  0.4245 -0.2644
    1WF      WF66596   4.955   1.758   1.711  0.2442  0.0756 -0.0521
    1WF      WF66597  29.624   2.920   9.365  0.1727 -0.0954  0.2190
    1WF      WF66598  23.238  15.401   0.905  0.1146 -0.1554  0.1612
    1WF      WF66599  27.354   5.486   0.558 -0.5854 -0.1295  0.1053
    1WF      WF66600  19.327   3.947   7.710  0.0084 -0.2645  0.2587
    1WF      WF66601  28.268  16.338   8.963 -0.2805 -0.1317  0.0274
    1WF      WF66602   3.568  29.380   7.843  0.2028 -0.0898 -0.0532
    1WF      WF66603  19.172   3.077   0.313 -0.1855 -0.0925 -0.0003
    1WF      WF66604   2.803  17.906   8.512 -0.0224  0.2416 -0.0126
    1WF      WF66605  24.838  28.459   1.029 -0.2373  0.0422  0.0472
    1WF      WF66606  12.642  24.839   7.037  0.2959  0.0589 -0.1902
    1WF      WF66607   8.386  27.521   0.403 -0.2707  0.0067 -0.1453
    1WF      WF66608  21.588  23.303   0.061 -0.1667  0.4773  0.0919
    1WF      WF66609  14.698   0.643   1.976  0.1934 -0.0838  0.2064
    1WF      WF66610  11.371   6.388   1.756  0.2297 -0.2586  0.2904
    1WF      WF66611   2.911   4.934   1.600  0.1734  0.0205  0.1920
    1WF      WF66612  13.457   9.923   8.514 -0.2162  0.5071 -0.1262
    1WF      WF66613   7.856  18.103   7.295  0.4739 -0.1679 -0.0678
    1WF      WF66614  20.157   9.451   1.674 -0.0777  0.1829 -0.0567
    1WF      WF66615   8.425  23.796   8.505 -0.2012 -0.0982 -0.0888
    1WF      WF66616   1.452  27.581   9.435  0.2267 -0.0015 -0.2778
    1WF      WF66617  12.368   1.585   0.086  0.6858  0.0657 -0.0092
    1WF      WF66618  16.965  25.678   0.966  0.5675  0.0285 -0.2479
    1WF      WF66619   6.653   0.959   2.559 -0.1689  0.3241 -0.0876
    1WF      WF66620   8.802  27.884   0.524  0.1348  0.0376  0.1109
    1WF      WF66621   4.462  11.055   8.812  0.0645  0.3207 -0.3363
    1WF      WF66622  17.319   3.498   1.990 -0.0260 -0.1000 -0.1291
    1WF      WF66623   4.650   1.581   0.222 -0.2848 -0.1754  0.2415
    1WF      WF66624  21.688  24.446   1.707 -0.1597 -0.0347 -0.0830
    1WF      WF66625  27.373  11.585   9.000  0.0878 -0.1700  0.1594
    1WF      WF66626   6.696  10.036   8.157  0.0835  0.4219  0.2100
    1WF      WF66627   9.239   0.218   8.973 -0.1429 -0.1041 -0.1799
    1WF      WF66628  27.995  13.448   1.365  0.0775 -0.1985  0.3130
    1WF      WF66629   7.818   5.611   8.186  0.0672  0.0136 -0.1040
    1WF      WF66630  10.798  12.942   3.522  0.3031  0.0529  0.3306
    1WF      WF66631   5.350  24.337   5.450 -0.0107  0.2494 -0.0050
    1WF      WF66632  22.972  29.008   7.752  0.0448  0.2059 -0.2161
    1WF      WF66633   0.616   4.643   9.273 -0.2197 -0.0460  0.3258
    1WF      WF66634  18.137   6.419   1.296  0.1777  0.0649  0.2116
    1WF      WF66635   1.839  13.750   0.976 -0.2493  0.1988 -0.1951
    1WF      WF66636   3.495   3.427   9.054 -0.0914  0.3386  0.0646
    1WF      WF66637  22.254  24.809   0.032 -0.1735 -0.1366  0.0283
    1WF      WF66638  12.417  13.879   7.359 -0.1871  0.1234  0.1213
    1WF      WF66639  18.381   9.578   8.516 -0.1299  0.0416 -0.1132
    1WF      WF66640  14.153  17.441   8.934  0.1738  0.0080  0.2757
    1WF      WF66641   8.928  24.653   8.790 -0.0583  0.2663 -0.1236
    1WF      WF66642   1.055   5.834   0.751 -0.0892  0.3385 -0.0144
    1WF      WF66643  16.049  23.327   5.367 -0.0238  0.0154 -0.2622
    1WF      WF66644   6.799   1.712   0.899  0.0238 -0.2706  0.2769
    1WF      WF66645  13.440   5.357   8.768 -0.2026  0.1735 -0.0448
    1WF      WF66646  11.214  22.247   9.513  0.1810 -0.0955 -0.2280
    1WF      WF66647  12.813  23.231   7.238  0.2067 -0.3256  0.1381
    1WF      WF66648  13.126  15.729   1.404  0.0988  0.0915 -0.0482
    1WF      WF66649   9.502   3.413   6.669  0.1028 -0.1553 -0.1659
    1WF      WF66650   3.204  28.180   8.653 -0.1382  0.0232 -0.0261
    1WF      WF66651  11.446   3.822   8.163 -0.3380 -0.0847 -0.0554
    1WF      WF66652  13.980  21.076   6.445  0.2778  0.0157  0.0896
    1WF      WF66653  22.583  28.693   1.091  0.1181 -0.2057  0.0610
    1WF      WF66654  16.558   5.417   0.859 -0.2787 -0.0539  0.0067
    1WF      WF66655   5.256  22.647   9.028 -0.2489 -0.2586 -0.1293
    1WF      WF66656   8.657   0.720   7.401 -0.0071  0.1021 -0.2081
    1WF      WF66657  23.441  15.921   8.599  0.2044 -0.1543 -0.2039
    1WF      WF66658  13.510  24.759   7.666  0.1178  0.1323 -0.1021
    1WF      WF66659  17.879  11.723   9.285  0.2179  0.1955  0.1740
    1WF      WF66660   8.829  22.753   0.375 -0.1838 -0.1249  0.0371
    1WF      WF66661  10.842  24.567   8.716 -0.0095 -0.2331 -0.0522
    1WF      WF66662   3.774   2.149   6.173 -0.0720  0.1162 -0.0052
    1WF      WF66663   6.699   7.292   1.264 -0.1235 -0.2479 -0.1605
    1WF      WF66664  12.329  11.577   0.580 -0.1975 -0.2413 -0.0962
    1WF      WF66665  24.049   5.564   0.203  0.4001  0.1269 -0.2148
    1WF      WF66666   4.214  20.126   2.321 -0.0807 -0.1596 -0.1092
    1WF      WF66667   5.061  15.867   0.344  0.1424  0.1728  0.0896
    1WF      WF66668  21.879  16.146   8.967  0.4004 -0.2609 -0.0368
    1WF      WF66669  28.244   8.038   1.249  0.3111 -0.1111 -0.4462
    1WF      WF66670   5.672  24.940   7.770 -0.1438 -0.3125  0.0102
    1WF      WF66671  12.216  26.908   9.473  0.2240  0.2758  0.4480
    1WF      WF66672   3.747  20.637   0.542 -0.0468 -0.0750 -0.3395
    1WF      WF66673  22.913  20.658   8.305  0.1185 -0.1043 -0.3177
    1WF      WF66674  16.440   7.480   0.912 -0.0748 -0.0353 -0.1572
    1WF      WF66675   3.308  18.532   9.523  0.0413  0.2864 -0.0280
    1WF      WF66676   2.944  26.104   0.889 -0.1747  0.2969  0.0390
    1WF      WF66677   0.644  10.329   8.611 -0.0449 -0.1606 -0.1327
    1WF      WF66678  21.137  27.610   8.706  0.1324 -0.1649 -0.1371
    1WF      WF66679  21.291  20.692   8.087  0.1865 -0.0269 -0.0106
    1WF      WF66680   8.708   9.546   3.184 -0.1977 -0.0422 -0.0734
    1WF      WF66681  14.948  13.579   1.030  0.1094  0.1886 -0.2187
    1WF      WF66682  25.449  28.251   8.161  0.1366 -0.1338  0.0720
    1WF      WF66683  20.104  24.764   9.272  0.1179  0.3714  0.2103
    1WF      WF66684  16.947  16.805   8.701  0.1050 -0.2080 -0.2116
    1WF      WF66685   9.802  13.503   9.147  0.3455  0.0329 -0.0312
    1WF      WF66686  26.888  14.402   1.045  0.1329  0.1495 -0.2192
    1WF      WF66687   4.394   0.181   8.058  0.1235 -0.1027  0.2282
    1WF      WF66688  19.214   0.211   8.703 -0.1035 -0.1975  0.0529
    1WF      WF66689  15.788  24.822   8.488  0.0127 -0.0002 -0.3602
    1WF      WF66690  13.645  10.772   8.028  0.0394 -0.0639  0.0001
    1WF      WF66691  26.125  17.499   8.130 -0.0629  0.2495 -0.1640
    1WF      WF66692   0.066   5.346   2.713  0.0198 -0.2406 -0.1711
    1WF      WF66693  10.247   4.237   1.591 -0.3864 -0.3087 -0.0279
    1WF      WF66694   8.638   1.636   1.858  0.1360  0.2671  0.0666
    1WF      WF66695  26.158  20.269   0.541  0.2616 -0.1937  0.0595
    1WF      WF66696  20.414   0.649   9.285 -0.1925 -0.4577  0.1956
    1WF      WF66697   0.385   1.247   8.446  0.2125  0.0017  0.2401
    1WF      WF66698  21.871   4.212   7.595 -0.0032 -0.0834 -0.1759
    1WF      WF66699  19.326  28.951   0.142  0.0688  0.0576 -0.5261
    1WF      WF66700  29.039  26.147   0.048 -0.0148 -0.0842  0.0270
    1WF      WF66701  21.026  22.550   1.218 -0.2375  0.2080 -0.1239
    1WF      WF66702  13.118  19.118   7.718 -0.0951 -0.1694  0.1242
    1WF      WF66703  26.477   0.544   2.574 -0.4012  0.0293  0.1650
    1WF      WF66704  12.448  13.906   9.236 -0.2198 -0.0872 -0.0035
    1WF      WF66705  14.265   8.446   7.820  0.0769  0.2596 -0.4049
    1WF      WF66706  17.193  12.474   8.566  0.1174  0.1122  0.1290
    1WF      WF66707  29.858  28.386   1.022 -0.0286 -0.1316 -0.0178
    1WF      WF66708  20.166  24.406   0.058  0.1419  0.2298  0.1146
    1WF      WF66709  25.625   4.682   1.110 -0.2689 -0.0362  0.0542
    1WF      WF66710  29.629  16.376   1.639  0.0257 -0.0250 -0.3936
    1WF      WF66711  27.301  14.042   1.752  0.0414 -0.1567 -0.0400
    1WF      WF66712  18.265  27.295   8.459  0.1816  0.1567 -0.4731
    1WF      WF66713   1.766   0.603   0.663 -0.0705 -0.1600 -0.0359
    1WF      WF66714  11.341   1.037   7.403  0.0050  0.1685  0.0115
    1WF      WF66715  19.140  25.157   0.387 -0.1900  0.0417 -0.0784
    1WF      WF66716   4.225  14.283   6.176 -0.1342 -0.0096 -0.0366
    1WF      WF66717  24.533   4.534   2.569  0.2539 -0.2593  0.3949
    1WF      WF66718   9.078  19.494   7.640 -0.0342 -0.1249  0.0046
    1WF      WF66719  21.648  22.426   9.311 -0.1629 -0.0143 -0.2278
    1WF      WF66720   0.079   2.801   0.856  0.2174 -0.0713  0.0873
    1WF      WF66721  23.418  15.646   8.984  0.1344 -0.1428  0.0729
    1WF      WF66722   5.935  14.140   2.627 -0.0761 -0.1873 -0.0616
    1WF      WF66723  19.740   3.826   0.849 -0.0677 -0.3285  0.1648
    1WF      WF66724  11.043  17.000   7.735  0.2587  0.0580  0.2116
    1WF      WF66725   1.821  11.854   0.427  0.0965  0.0466 -0.0842
    1WF      WF66726  28.702   1.249   7.902  0.4980 -0.0928 -0.0035
    1WF      WF66727  26.271   4.064   8.110 -0.1602  0.1973  0.2006
    1WF      WF66728  13.329  19.774   8.690 -0.0806  0.0159 -0.2119
    1WF      WF66729  18.742   4.445   8.213 -0.1877  0.0907 -0.2318
    1WF      WF66730  26.042   2.252   7.718  0.0100  0.0337 -0.0922
    1WF      WF66731  14.239   3.509   0.378 -0.2874 -0.0428  0.2383
    1WF      WF66732  22.536  27.056   8.267 -0.0138  0.3148  0.2962
    1WF      WF66733  29.408  19.631   7.361  0.1407 -0.1910  0.0089
    1WF      WF66734   4.468   8.369   6.459  0.1091 -0.2156  0.0328
    1WF      WF66735  16.341   9.873   0.337  0.0480  0.0845 -0.0702
    1WF      WF66736  23.598   1.824   7.535 -0.0579  0.1125 -0.4570
    1WF      WF66737  18.808  10.756   0.728 -0.3027 -0.0575 -0.0822
    1WF      WF66738  14.139  23.459   7.015 -0.2469  0.0725 -0.1910
    1WF      WF66739   8.918   8.657   1.136 -0.0868 -0.0340  0.0032
    1WF      WF66740  27.799  13.690   8.742  0.1835  0.0415 -0.1632
    1WF      WF66741  10.970   3.600   8.149  0.2820  0.2093 -0.0388
    1WF      WF66742  13.385  20.133   9.129 -0.1915 -0.1771 -0.0132
    1WF      WF66743  11.717   0.798   8.826 -0.3979 -0.1942 -0.0704
    1WF      WF66744  26.918  13.747   8.734 -0.4675 -0.0653  0.2675
    1WF      WF66745  27.868  13.488   7.837 -0.2879 -0.0265  0.0908
    1WF      WF66746   0.882  21.081   8.809  0.1812  0.0217  0.2276
    1WF      WF66747  17.671   3.759   1.721 -0.0882  0.2428 -0.0788
    1WF      WF66748  15.806  27.866   1.404 -0.1454 -0.0884  0.1204
    1WF      WF66749  21.827  18.849   9.161  0.0261  0.1480 -0.1945
    1WF      WF66750   2.410   4.985   1.581  0.0257 -0.2092 -0.0933
    1WF      WF66751  10.321  23.582   8.336 -0.0624 -0.0026  0.0413
    1WF      WF66752  12.579  26.952   7.929  0.0636 -0.0203  0.2018
    1WF      WF66753  12.362  11.553   8.875 -0.1994 -0.2794  0.0872
    1WF      WF66754   3.700  13.214   0.937  0.2134 -0.4243  0.1915
    1WF      WF66755  17.376   0.865   9.108 -0.3304  0.0994 -0.1812
    1WF      WF66756  28.085  22.809   0.202  0.2731  0.0494  0.2028
    1WF      WF66757   0.956  11.395   1.764  0.1065  0.0493 -0.0407
    1WF      WF66758   1.009  10.455   8.275  0.1808  0.2834  0.0420
    1WF      WF66759  22.568   7.710   8.694 -0.1102  0.0640 -0.0026
    1WF      WF66760   8.725  29.231   1.309 -0.0061 -0.1978  0.1001
    1WF      WF66761   6.887  10.234   7.606  0.1988  0.4040  0.0278
    1WF      WF66762  28.443  27.396   7.567  0.3903 -0.1383 -0.2905
    1WF      WF66763   3.408   9.530   1.507 -0.1475  0.0166 -0.0000
    1WF      WF66764  11.793  11.102   8.240  0.3348 -0.3826  0.0091
    1WF      WF66765  23.316   3.820   1.259  0.1928  0.0405  0.0820
    1WF      WF66766  19.675   3.175   3.008  0.2335 -0.2504  0.0240
    1WF      WF66767  25.830  26.938   7.710 -0.2839  0.2726  0.0846
    1WF      WF66768  17.536  16.050   1.168 -0.1664  0.0681 -0.0811
    1WF      WF66769   4.031  27.742   6.737 -0.1967  0.1149 -0.0584
    1WF      WF66770   2.321  25.688   6.973 -0.2230  0.1022  0.1939
    1WF      WF66771  27.747  14.246   8.682  0.1709 -0.2119  0.0399
    1WF      WF66772   1.673  22.405   9.214 -0.1217  0.2869  0.1555
    1WF      WF66773  16.767  21.544   6.975  0.3022  0.3296  0.0985
    1WF      WF66774  14.579  14.000   7.033  0.2420  0.0559 -0.1781
    1WF      WF66775  10.359   4.576   8.535  0.3308  0.1852 -0.0784
    1WF      WF66776  21.317   2.216   9.489 -0.1338 -0.0476 -0.2826
    1WF      WF66777  23.696  25.887   1.728  0.0080  0.2069  0.0644
    1WF      WF66778  12.580  27.379   0.419 -0.0446 -0.0281 -0.1125
    1WF      WF66779  10.668  20.767   6.856 -0.1672  0.1630  0.0369
    1WF      WF66780  26.427   3.522   8.013  0.0963  0.1872 -0.0513
    1WF      WF66781  15.918  26.319   9.414 -0.1458  0.0910 -0.1906
    1WF      WF66782  14.618  12.638   0.824  0.2959  0.0489  0.0414
    1WF      WF66783  10.694  28.672   0.413 -0.0055  0.0227 -0.0239
    1WF      WF66784   5.638  24.022   0.317 -0.1311 -0.2130  0.0934
    1WF      WF66785  19.257  14.882   0.978 -0.0789 -0.2722 -0.2020
    1WF      WF66786  20.239  24.382   7.121 -0.3300  0.1325  0.0541
    1WF      WF66787  24.260  28.673   1.174  0.0749  0.1371 -0.2105
    1WF      WF66788  26.590   6.419   0.738  0.0234  0.1143 -0.3690
    1WF      WF66789  10.343   2.659   1.466 -0.1567  0.0263  0.0337
    1WF      WF66790  25.955  27.766   2.612 -0.1532  0.0316 -0.2155
    1WF      WF66791  11.193  28.079   8.878 -0.2823 -0.3970  0.1512
    1WF      WF66792   1.665  24.027   0.036  0.1033 -0.0510  0.1234
    1WF      WF66793  15.534   3.189   9.191 -0.3472  0.1444  0.3182
    1WF      WF66794  13.372  29.683   7.224 -0.1195 -0.1254 -0.3180
    1WF      WF66795  12.985   7.897   2.388 -0.1230 -0.0701  0.1502
    1WF      WF66796   1.488  19.630   8.641  0.2529 -0.2791  0.0378
    1WF      WF66797   5.899   9.562   0.027 -0.0972 -0.4082 -0.4221
    1WF      WF66798   8.033  28.039   2.671  0.1856  0.0956 -0.1601
    1WF      WF66799   5.982   8.411   9.320  0.0107 -0.3095  0.0119
    1WF      WF66800   0.034  18.172   8.797 -0.0476  0.3022 -0.0854
    1WF      WF66801   2.946   3.103   0.959  0.0614 -0.1036 -0.0276
    1WF      WF66802  22.592  14.519   1.277  0.0411 -0.0363 -0.1374
    1WF      WF66803  16.192   3.104   9.032  0.1554  0.3592 -0.0680
    1WF      WF66804  27.937  24.606   0.370  0.0602 -0.1100  0.0061
    1WF      WF66805   7.881   5.520   0.935 -0.0482  0.2569 -0.2187
    1WF      WF66806   1.669   0.671   1.951 -0.0194  0.1290  0.1092
    1WF      WF66807  16.973   9.759   8.406  0.2274  0.2497 -0.0531
    1WF      WF66808   4.211  11.360   2.203 -0.2097 -0.0782  0.0840
    1WF      WF66809   7.811  16.863   2.699  0.5780 -0.1983  0.1068
    1WF      WF66810   9.681  22.032   7.792 -0.1185  0.3263 -0.0634
    1WF      WF66811  16.883  13.533   0.724  0.2321 -0.1476 -0.3056
    1WF      WF66812   6.649  15.962   7.665 -0.1556  0.0389  0.0947
    1WF      WF66813  17.677  22.164   7.934  0.0914 -0.1993 -0.0033
    1WF      WF66814  11.778  27.598   9.170  0.1059  0.0386 -0.1846
    1WF      WF66815  17.811   5.818   0.075  0.1393  0.1441 -0.0521
    1WF      WF66816  24.602  18.677   0.432  0.1649 -0.1053 -0.2566
    1WF      WF66817  10.557  26.131   8.272 -0.1857  0.0720 -0.1650
    1WF      WF66818  25.278  21.009   3.115 -0.1031  0.2791  0.3364
    1WF      WF66819  15.500  17.969   1.302  0.3236 -0.0950 -0.3303
    1WF      WF66820  13.247  18.415   0.085  0.0898 -0.0288 -0.0751
    1WF      WF66821   8.750  17.962   7.463  0.0029  0.1859  0.2202
    1WF      WF66822   3.292  24.010   7.375  0.0305 -0.2825  0.0268
    1WF      WF66823  18.027  23.649   9.438 -0.1074  0.2458  0.1834
    1WF      WF66824   6.613  21.205   0.710  0.1618 -0.3056 -0.0405
    1WF      WF66825   3.309   0.890   1.383 -0.0871 -0.1630 -0.0022
    1WF      WF66826  11.628   1.970   0.883  0.0316  0.0815  0.3893
    1WF      WF66827   4.789  28.497   0.169 -0.1470 -0.2119  0.1296
    1WF      WF66828   1.669   5.533   7.862  0.0397  0.0227  0.0655
    1WF      WF66829  11.071  27.275   7.868 -0.1386  0.1341 -0.1689
    1WF      WF66830  23.387  21.422   7.476 -0.0707  0.2109 -0.0824
    1WF      WF66831  16.114  27.325   1.096  0.2467  0.1385  0.1467
    1WF      WF66832   4.680   1.839   6.866 -0.3187 -0.0499  0.0640
    1WF      WF66833  27.369  22.284   8.034 -0.0467  0.5030  0.0347
    1WF      WF66834  13.324  20.309   0.134  0.2595 -0.1200  0.0069
    1WF      WF66835   8.492   8.113   8.163  0.1046  0.1066  0.1321
    1WF      WF66836  29.844  14.103   9.166  0.2760  0.1360  0.1108
    1WF      WF66837  12.496   1.627   0.589 -0.0935 -0.0409 -0.4886
    1WF      WF66838  23.168  24.804   1.064  0.3204  0.2529  0.3037
    1WF      WF66839   3.632  14.786   7.958 -0.0685 -0.1524 -0.1049
    1WF      WF66840  20.126  16.673   0.769 -0.1095  0.2479  0.3916
    1WF      WF66841   7.498  25.825   9.267 -0.0814 -0.2760  0.1009
    1WF      WF66842  14.425   1.590   2.418  0.2693  0.1183 -0.2629
    1WF      WF66843  26.711   9.055   0.666 -0.0987  0.1536 -0.2317
    1WF      WF66844  11.685   0.367   8.630 -0.2049 -0.1835 -0.0341
    1WF      WF66845  19.061  14.409   8.233  0.0259  0.1547 -0.0680
    1WF      WF66846  29.107   9.698   0.951  0.2717  0.1621 -0.0385
    1WF      WF66847   3.838  20.785   0.994  0.0434 -0.2149  0.0570
    1WF      WF66848   3.720   5.938   0.034  0.0525  0.1900  0.0967
    1WF      WF66849   9.968  22.223   1.896 -0.0227  0.3163  0.0077
    1WF      WF66850   3.809  24.533   9.027 -0.0583  0.0827 -0.3411
    1WF      WF66851  21.974  22.789   9.387 -0.0486  0.3924 -0.1362
    1WF      WF66852   0.917   4.927   7.762  0.3526 -0.0767  0.2870
    1WF      WF66853  29.604   5.441   9.245  0.1305  0.2070 -0.1851
    1WF      WF66854   6.011  29.071   0.916 -0.1917  0.0037  0.0538
    1WF      WF66855  28.018  29.066   0.227 -0.2845 -0.0552 -0.0620
    1WF      WF66856   5.666   6.904   7.787  0.0744 -0.2852 -0.5677
    1WF      WF66857   8.046  11.653   1.962 -0.0765 -0.1093  0.0223
    1WF      WF66858  29.712  20.268   1.184 -0.3882 -0.2850  0.1824
    1WF      WF66859   2.447   3.283   0.930 -0.0013  0.0316  0.0775
    1WF      WF66860  11.203  18.234   9.461 -0.1566 -0.1726  0.1530
    1WF      WF66861   2.552  24.077   8.670 -0.0614  0.1728 -0.1636
    1WF      WF66862  11.589   3.832   1.397 -0.2601 -0.1571 -0.2684
    1WF      WF66863  23.639   9.021   0.249  0.0011 -0.1837 -0.0536
    1WF      WF66864   6.446  19.556   1.184  0.1126  0.0282  0.2465
    1WF      WF66865  27.883  28.906   8.409 -0.1729  0.0672 -0.1489
    1WF      WF66866  11.468  27.707   6.766  0.1795  0.1031 -0.2947
    1WF      WF66867   1.720  22.623   0.146  0.2527 -0.1674  0.0896
    1WF      WF66868   4.892  11.822   7.241 -0.1012  0.0621  0.2797
    1WF      WF66869  19.070  13.078   2.837  0.1040  0.1231  0.0953
    1WF      WF66870  12.952  15.837   0.051  0.1230  0.2834 -0.0180
    1WF      WF66871  21.683  11.937   6.588 -0.0825  0.1576  0.2058
    1WF      WF66872  16.818   4.054   9.281  0.0079  0.0308  0.0665
    1WF      WF66873  15.032   9.290   1.055  0.2821  0.1137  0.2413
    1WF      WF66874   4.118   5.410   9.414 -0.2598 -0.0091 -0.5257
    1WF      WF66875  21.653   0.237   9.458  0.0884 -0.0933 -0.1616
    1WF      WF66876   7.042  12.591   6.757  0.4075 -0.3674  0.0288
    1WF      WF66877  27.777   0.799   8.077 -0.0002 -0.0923 -0.1408
    1WF      WF66878  23.472  27.669   3.494  0.2600 -0.3340  0.4801
    1WF      WF66879   9.542   3.913   8.784 -0.2528  0.1268 -0.2112
    1WF      WF66880  27.595  10.994   1.096 -0.0541 -0.0879  0.1696
    1WF      WF66881   2.655  28.864   0.301  0.0639 -0.0353  0.2311
    1WF      WF66882  11.883  13.808   1.285  0.0682  0.0473  0.1309
    1WF      WF66883  22.528   8.670   3.141 -0.3193  0.3332 -0.1050
    1WF      WF66884  24.822  28.322   6.794  0.0500  0.1664  0.2661
    1WF      WF66885   7.103   1.945   7.427  0.0867  0.0530  0.0247
    1WF      WF66886  10.001  28.282   9.476 -0.0799  0.0448 -0.1320
    1WF      WF66887   9.645  13.312   6.371 -0.0480  0.1302 -0.1205
    1WF      WF66888  14.379  13.697   6.681 -0.1125  0.0205  0.1672
    1WF      WF66889  13.182   8.818   1.605 -0.1600 -0.0817  0.1448
    1WF      WF66890  11.683  26.988   1.049 -0.1424 -0.0580  0.0617
    1WF      WF66891   0.743  15.550   9.244 -0.0667  0.0955 -0.1393
    1WF      WF66892  25.498   4.927   9.148  0.1333  0.0621 -0.0900
    1WF      WF66893  23.492  15.198   0.446  0.0557  0.1651  0.4473
    1WF      WF66894   6.208  23.434   7.035  0.3428 -0.1354  0.0490
    1WF      WF66895  28.523  18.118   8.410  0.2541 -0.1907  0.1261
    1WF      WF66896  11.405  14.678   1.868 -0.4215 -0.2474  0.0199
    1WF      WF66897  19.095   7.394   2.809  0.0535  0.0406  0.0327
    1WF      WF66898  11.873   5.425   0.931  0.3474  0.0769 -0.3783
    1WF      WF66899   5.222  24.087   7.661 -0.1114 -0.1473 -0.0301
    1WF      WF66900  25.550  28.337   1.559 -0.2831  0.2370 -0.1032
    1WF      WF66901  12.135   5.912   0.041  0.0073  0.1011  0.0914
    1WF      WF66902  22.310   8.148   8.683  0.0493 -0.0275 -0.1019
    1WF      WF66903  15.724  18.474   8.580  0.2838  0.0537 -0.1980
    1WF      WF66904  11.265  10.425   7.534 -0.2164 -0.1898 -0.0984
    1WF      WF66905   5.606  11.928   2.213 -0.0134 -0.0484 -0.0413
    1WF      WF66906  23.009  17.775   0.377  0.1445 -0.0475  0.0987
    1WF      WF66907  20.408   5.208   8.931  0.3717 -0.2379  0.1748
    1WF      WF66908  18.122  14.161   1.138 -0.0088  0.1050 -0.1422
    1WF      WF66909  13.092   6.682   2.350  0.3396 -0.1238 -0.1786
    1WF      WF66910  11.271  25.200   0.811  0.1157 -0.1562 -0.3164
    1WF      WF66911  23.583  11.318   8.980  0.0262 -0.0252 -0.0884
    1WF      WF66912  20.278  21.231   8.645  0.3015 -0.0067  0.2862
    1WF      WF66913   6.139  29.233   7.140  0.0480  0.1247 -0.1041
    1WF      WF66914   7.649  25.621   8.808 -0.4350  0.0831 -0.1756
    1WF      WF66915  12.062   7.583   3.267  0.2565  0.0731  0.0129
    1WF      WF66916  29.408  24.179   8.360 -0.0459 -0.2415  0.3208
    1WF      WF66917  25.535   9.004   2.845 -0.0379 -0.1257 -0.0901
    1WF      WF66918  15.736   2.360   9.342  0.3350 -0.0056 -0.0036
    1WF      WF66919  17.934  20.637   8.571  0.1758  0.0454  0.2344
    1WF      WF66920  12.072  26.984   7.119  0.1568  0.0456 -0.3794
    1WF      WF66921   9.680  10.879   8.530 -0.0581  0.0524  0.0682
    1WF      WF66922  16.240  29.331   8.836  0.0384 -0.0203 -0.3158
    1WF      WF66923  20.457  15.950   8.320 -0.0005  0.1356  0.1231
    1WF      WF66924  27.315   3.633   2.342  0.0191  0.1651  0.2736
    1WF      WF66925  24.461  23.486   9.509  0.0642 -0.1450 -0.0073
    1WF      WF66926   6.378  11.295   1.535  0.0304 -0.0436  0.4039
    1WF      WF66927   3.515  21.569   8.052 -0.2755 -0.1543  0.2487
    1WF      WF66928   4.322   4.019   8.641 -0.0220  0.1738  0.1597
    1WF      WF66929  12.818   2.530   7.226  0.0506 -0.0819 -0.4452
    1WF      WF66930   8.615  11.201   0.858 -0.1590 -0.0335  0.1541
    1WF      WF66931   4.750  24.497   8.546  0.0392 -0.1100  0.2713
    1WF      WF66932   0.627  25.851   7.335  0.1991  0.1981 -0.0099
    1WF      WF66933  25.853  20.752   1.660  0.1942  0.1154 -0.2075
    1WF      WF66934  29.695  14.593   8.891 -0.1032 -0.3376  0.0337
    1WF      WF66935   8.133   1.638   8.692 -0.3362 -0.1651  0.1556
    1WF      WF66936  27.725  12.428   1.587 -0.4529 -0.2472 -0.2085
    1WF      WF66937  10.305  14.216   8.891 -0.0821 -0.2023  0.0184
    1WF      WF66938  22.691  11.348   8.477  0.0985  0.2086 -0.2509
    1WF      WF66939  23.756  24.864   0.796 -0.0457  0.1093  0.0274
    1WF      WF66940   3.261  15.297   1.622  0.1999 -0.0112  0.2505
    1WF      WF66941  13.524  13.852   1.006  0.4427 -0.0801 -0.0194
    1WF      WF66942   3.981  14.553   8.164  0.0617  0.0295 -0.1673
    1WF      WF66943  10.924  22.356   6.632 -0.1860 -0.2368 -0.1623
    1WF      WF66944  21.510   7.650   1.804 -0.0613 -0.0558  0.0594
    1WF      WF66945  17.821  27.544   6.809  0.3333 -0.1098 -0.3006
    1WF      WF66946  24.543  28.204   8.930 -0.1216  0.1125 -0.1351
    1WF      WF66947   9.043  17.417   6.374 -0.3434 -0.0639 -0.1332
    1WF      WF66948  22.328   9.977   8.985 -0.0538 -0.3325  0.0227
    1WF      WF66949   4.451  19.309   9.321 -0.3404  0.4802  0.2996
    1WF      WF66950  21.890  24.583   7.446 -0.2205 -0.1390 -0.0450
    1WF      WF66951  17.968   5.985   1.656 -0.2806  0.2796 -0.3716
    1WF      WF66952  23.762  10.033   8.957 -0.3427 -0.1207 -0.2723
    1WF      WF66953   0.710   6.098   0.419 -0.1025 -0.0778  0.0200
    1WF      WF66954   6.036  23.972   6.746 -0.3103 -0.2110 -0.3906
    1WF      WF66955   6.586  25.514   8.217 -0.0842 -0.1601 -0.0378
    1WF      WF66956   9.285  27.924   7.887 -0.2330 -0.3661  0.0092
    1WF      WF66957  22.855  27.406   8.133 -0.1229 -0.2049  0.0105
    1WF      WF66958  20.261  29.341   1.747 -0.0022  0.0570  0.1466
    1WF      WF66959  13.923  10.428   1.301 -0.1577  0.3652 -0.0106
    1WF      WF66960  26.561  26.270   8.944 -0.1888  0.0358  0.1591
    1WF      WF66961  22.151  24.326   9.509 -0.1718  0.0652 -0.0241
    1WF      WF66962  14.019   8.215   0.078  0.2731 -0.0308 -0.0384
    1WF      WF66963  26.809   3.019   8.428  0.0169  0.2490  0.0696
    1WF      WF66964   5.648  11.717   1.797 -0.0411  0.0579  0.2198
    1WF      WF66965  25.523  13.190   8.998 -0.1842 -0.3304 -0.0885
    1WF      WF66966  11.344  22.605   1.200 -0.2811  0.0930  0.1964
    1WF      WF66967  26.664   4.430   8.182  0.1620 -0.0812  0.1313
    1WF      WF66968  14.385   7.866   0.382  0.1660 -0.1553  0.0169
    1WF      WF66969   1.068  25.401   6.771  0.0226  0.0289 -0.2238
    1WF      WF66970  17.453   0.922   8.572  0.1817 -0.1726  0.1027
    1WF      WF66971  10.296   9.709   1.948  0.2028 -0.1588  0.3219
    1WF      WF66972  27.407  11.264   2.677  0.1073 -0.4294  0.0898
    1WF      WF66973  14.993  13.128   9.370 -0.1080 -0.0628  0.0280
    1WF      WF66974  21.227   7.494   1.361  0.0076  0.0678 -0.0879
    1WF      WF66975  13.704  25.293   1.236  0.0753  0.1289 -0.0481
    1WF      WF66976  18.619  15.674   0.194 -0.0870  0.0053  0.0438
    1WF      WF66977  16.093  23.877   6.838 -0.1582  0.2283 -0.0747
    1WF      WF66978  19.276  18.906   8.774  0.2565  0.1306  0.0390
    1WF      WF66979  19.547  23.387   7.216  0.0191  0.0352 -0.0248
    1WF      WF66980   5.210   1.915   8.818 -0.0116  0.1257 -0.1492
    1WF      WF66981  23.721  15.735   8.230 -0.2542  0.1201  0.2649
    1WF      WF66982   3.416  13.002   0.599 -0.2279  0.1628  0.0201
    1WF      WF66983  19.497  29.366   0.001  0.3127 -0.1537 -0.0028
    1WF      WF66984  11.919  19.227   8.828  0.2530  0.1499 -0.1338
    1WF      WF66985  10.484  12.144   8.566  0.1023  0.0742 -0.3604
    1WF      WF66986   6.524  26.337   7.627 -0.0231 -0.3049 -0.0403
    1WF      WF66987  22.531  25.963   9.408 -0.0336  0.0021  0.0310
    1WF      WF66988   8.028  21.857   0.726  0.1058 -0.0260  0.1970
    1WF      WF66989  10.631  23.111   8.466 -0.1565 -0.1926 -0.1920
    1WF      WF66990  25.748  25.435   0.467  0.2644 -0.1173 -0.0414
    1WF      WF66991   4.591  27.305   2.034 -0.1197  0.0762 -0.0486
    1WF      WF66992  20.023   2.572   1.604  0.0466 -0.2848  0.0430
    1WF      WF66993  22.566  21.778   2.566 -0.0370 -0.0194 -0.1158
    1WF      WF66994  28.759   1.845   0.869 -0.4842  0.5238 -0.3180
    1WF      WF66995  16.224   1.553   9.092  0.0071  0.1000  0.0059
    1WF      WF66996  25.275   6.429   8.074 -0.1485 -0.5874 -0.1343
    1WF      WF66997  15.871   5.254   1.964  0.1494  0.1005 -0.2114
    1WF      WF66998  15.094   0.361   1.997 -0.1356  0.0021 -0.1360
    1WF      WF66999  12.812  24.950   9.274  0.0713 -0.0068  0.0050
    1WF      WF67000   6.473  10.385   8.418  0.0817  0.0430  0.1441
    1WF      WF67001  17.351  12.905   8.820 -0.0697 -0.0773  0.1897
    1WF      WF67002   4.686  10.190   0.746  0.1559 -0.0598 -0.1509
    1WF      WF67003   8.181  19.029   1.092 -0.1157 -0.7003  0.2106
    1WF      WF67004  22.218   8.642   8.702  0.1074  0.0655 -0.0940
    1WF      WF67005  14.775   7.530   9.519  0.0859  0.1940 -0.0919
    1WF      WF67006  23.441  14.958   1.101  0.2934  0.0058  0.0428
    1WF      WF67007  21.918  16.510   8.569  0.2532  0.1407 -0.0102
    1WF      WF67008  18.147   5.288   2.984 -0.1657  0.0456 -0.2444
    1WF      WF67009   0.783   2.795   1.471  0.0185  0.2506  0.1935
    1WF      WF67010  11.637   6.108   2.151 -0.0805 -0.2585  0.1401
    1WF      WF67011   4.405  25.097   0.791 -0.1727 -0.2697  0.2837
    1WF      WF67012   5.943  11.005   7.919 -0.2273 -0.0605 -0.1394
    1WF      WF67013   5.023  13.441   8.216  0.2550  0.2865 -0.0600
    1WF      WF67014  21.888  27.158   1.784 -0.4167 -0.0743 -0.0022
    1WF      WF67015   2.624  20.027   8.918 -0.1383 -0.1249 -0.1201
    1WF      WF67016  22.899   5.737   8.262  0.1337 -0.0733  0.1169
    1WF      WF67017  15.852  17.448   9.182  0.0569 -0.2450 -0.2917
    1WF      WF67018   4.992   4.616   0.027  0.0862 -0.0243  0.3658
    1WF      WF67019  20.331   4.905   1.216 -0.1355  0.0119 -0.2606
    1WF      WF67020  29.389   4.970   0.509  0.0201  0.0074  0.1326
    1WF      WF67021  27.735   7.487   1.758  0.0391 -0.0107 -0.1371
    1WF      WF67022  19.430   5.378   0.058  0.1679 -0.1544 -0.2022
    1WF      WF67023  29.142  10.259   8.038  0.2369  0.0696 -0.0232
    1WF      WF67024   2.188  14.008   0.759  0.2707  0.2475 -0.2690
    1WF      WF67025  16.724   3.300   0.958  0.0197  0.2475 -0.0782
    1WF      WF67026   1.617   5.517   3.122  0.0872 -0.0794  0.0345
    1WF      WF67027   8.775  10.717   8.045  0.0128  0.0303 -0.0614
    1WF      WF67028   5.666  16.212   0.508  0.1636 -0.3564 -0.1189
    1WF      WF67029  28.271   9.326   1.169 -0.1086 -0.1489 -0.2517
    1WF      WF67030   3.083  22.022   9.289 -0.0356  0.0362  0.2500
    1WF      WF67031  25.954  23.843   1.038  0.0077  0.0923  0.2873
    1WF      WF67032   9.661  25.135   0.524  0.0343 -0.0983  0.1921
    1WF      WF67033  18.196   5.677   2.630  0.0339 -0.2396  0.3381
    1WF      WF67034  12.542   0.303   9.461  0.0203 -0.0118  0.1290
    1WF      WF67035  28.498  17.667   8.133 -0.3110  0.0672  0.1512
    1WF      WF67036   0.339   8.992   8.533  0.1878 -0.1003  0.4972
    1WF      WF67037  12.213   8.816   0.311 -0.2317  0.1013  0.1826
    1WF      WF67038   3.200  23.668   6.992  0.0422  0.0073 -0.2723
    1WF      WF67039  26.229  11.600   0.732  0.0336  0.0949  0.2618
    1WF      WF67040   2.494  28.129   0.962  0.1776 -0.0787 -0.0146
    1WF      WF67041   1.457  19.112   8.546  0.0089  0.0467 -0.2749
    1WF      WF67042  14.525  26.493   0.386 -0.0230  0.0275  0.1984
    1WF      WF67043   4.541  13.795   8.246 -0.1119  0.3472  0.0012
    1WF      WF67044   2.364  19.386   2.199 -0.3329  0.2343  0.4755
    1WF      WF67045  11.404  29.341   0.258  0.2206  0.2015  0.0485
    1WF      WF67046  23.666  11.918   7.346 -0.2367 -0.0717  0.0868
    1WF      WF67047  28.721   9.362   3.168 -0.1470  0.1069 -0.3183
    1WF      WF67048  10.211   4.498   1.105 -0.1911  0.0360  0.0816
    1WF      WF67049  26.990  21.972   9.279 -0.0322 -0.1014 -0.0794
    1WF      WF67050  12.474  22.854   8.814  0.0288  0.3340 -0.1744
    1WF      WF67051   7.825   1.203   8.693 -0.0466  0.0640  0.0262
    1WF      WF67052  13.810  17.167   9.196 -0.1800  0.1530  0.3952
    1WF      WF67053  16.133  20.753   8.128 -0.0440 -0.1201  0.1886
    1WF      WF67054  17.253   1.934   2.537 -0.1697 -0.1606  0.4769
    1WF      WF67055  11.075  29.083   1.569 -0.1956  0.0124  0.1912
    1WF      WF67056   0.296  19.724   7.496 -0.0137 -0.0761 -0.3435
    1WF      WF67057  28.319   4.354   9.196  0.2259 -0.0417 -0.2128
    1WF      WF67058   9.602  26.579   9.083  0.0004  0.0496 -0.3418
    1WF      WF67059  10.015   8.087   9.529  0.3233  0.2250 -0.1108
    1WF      WF67060  19.326   8.315   0.464 -0.1410  0.0254 -0.2511
    1WF      WF67061  18.634  12.968   9.011  0.3344  0.0505  0.0054
    1WF      WF67062   0.854  22.331   1.579  0.0512  0.1548  0.0111
    1WF      WF67063   0.861   4.441   0.149  0.1591 -0.0962 -0.1315
    1WF      WF67064  13.509  10.316   0.942 -0.1528 -0.0980  0.0289
    1WF      WF67065   7.130  15.450   8.243 -0.0759 -0.0316  0.0152
    1WF      WF67066  26.220   6.097   0.748 -0.0501  0.0784 -0.1101
    1WF      WF67067  27.093  23.360   8.450 -0.1730 -0.1117  0.2524
    1WF      WF67068  21.071  29.749   1.828  0.0847  0.2351  0.0065
    1WF      WF67069   9.425  14.691   8.251 -0.1818 -0.3561 -0.0957
    1WF      WF67070  13.041  15.320   7.801  0.1045 -0.4589  0.1619
    1WF      WF67071   8.543  29.764   0.308 -0.1305 -0.2256  0.0086
    1WF      WF67072  14.787   2.603   4.267  0.2106  0.3770  0.2669
    1WF      WF67073  14.579  29.121   1.019  0.0733  0.1786  0.2621
    1WF      WF67074   1.520   5.941   0.502 -0.0315 -0.0028  0.4120
    1WF      WF67075   4.137   1.241   0.193  0.0962  0.1848  0.0909
    1WF      WF67076   1.816   6.436   7.571 -0.2406 -0.1118 -0.0058
    1WF      WF67077  15.667  29.774   8.810 -0.1648 -0.1241  0.0175
    1WF      WF67078   2.210  18.924   1.252 -0.1085  0.2862 -0.1223
    1WF      WF67079  27.936  12.913   1.544 -0.0171  0.2898 -0.0824
    1WF      WF67080  24.030   0.734   0.990 -0.1293  0.1044 -0.3136
    1WF      WF67081   2.193  10.895   1.261  0.2202  0.0661 -0.2271
    1WF      WF67082  29.796  13.134   8.111  0.1661  0.0109 -0.0020
    1WF      WF67083  13.251  22.071   7.362 -0.0905 -0.1609 -0.1783
    1WF      WF67084  27.909  17.157   1.666  0.3946 -0.1568 -0.0659
    1WF      WF67085  21.352   2.497   1.984  0.1260  0.1401 -0.2434
    1WF      WF67086  17.808   5.505   1.958  0.0911  0.1459 -0.0668
    1WF      WF67087   5.548  22.038   0.727 -0.4355  0.1826  0.1798
    1WF      WF67088   2.571   2.932   1.287 -0.2229 -0.3121  0.2710
    1WF      WF67089   6.856  12.353   7.158  0.1692  0.0046 -0.0082
    1WF      WF67090  25.698  13.148   8.401  0.0785  0.0049 -0.2442
    1WF      WF67091  16.751   1.559   1.367 -0.0037 -0.0433 -0.0176
    1WF      WF67092   7.814  19.148   0.744  0.2152  0.1512 -0.0439
    1WF      WF67093  29.782  12.972   8.583 -0.3915  0.0192  0.0985
    1WF      WF67094   8.726  21.274   7.921  0.1355  0.0728 -0.1417
    1WF      WF67095   5.644  20.180   9.252  0.1172  0.1025 -0.0202
    1WF      WF67096  19.130  22.007   5.742 -0.0231 -0.0583 -0.0707
    1WF      WF67097  29.635  13.267   7.323 -0.0211 -0.0135 -0.0179
    1WF      WF67098   2.642   0.460   8.357  0.0441 -0.2854 -0.1966
    1WF      WF67099   8.486   8.511   8.584 -0.0226  0.1472 -0.1505
    1WF      WF67100  17.996   7.960   1.488  0.0507  0.2146  0.0486
    1WF      WF67101  12.769  18.157   0.685  0.2252  0.1870 -0.0375
    1WF      WF67102  19.350  22.095   8.235  0.2505  0.0477  0.0016
    1WF      WF67103  27.040  13.688   9.330 -0.0199  0.0447 -0.0293
    1WF      WF67104  10.058  20.946   7.304 -0.1129 -0.0834  0.0677
    1WF      WF67105  16.089   0.562   0.157 -0.1620 -0.1442  0.0278
    1WF      WF67106  17.096  14.904   8.128 -0.1807  0.0793 -0.0386
    1WF      WF67107  19.787  20.668   6.773  0.0368  0.0751  0.0160
    1WF      WF67108   3.318  17.872   0.153 -0.1953  0.2262  0.1026
    1WF      WF67109   3.929  13.804   7.919 -0.1342  0.0734 -0.3957
    1WF      WF67110  26.988  26.206   9.237  0.2321  0.4254  0.3733
    1WF      WF67111  23.316  19.651   7.740  0.0147 -0.0419 -0.3540
    1WF      WF67112  27.985  17.989   0.725  0.2653 -0.2067 -0.0371
    1WF      WF67113  22.254  27.827   1.223  0.1288  0.1596 -0.0040
    1WF      WF67114   3.888  20.979   0.151  0.0038 -0.2195 -0.3397
    1WF      WF67115   7.748  18.842   1.092 -0.0528 -0.3714  0.2556
    1WF      WF67116   3.798  24.653   1.194  0.1383 -0.2460  0.1968
    1WF      WF67117   8.601   4.902   7.958 -0.1719 -0.2565 -0.1802
    1WF      WF67118  20.081  20.049   0.329  0.2918  0.1676 -0.1824
    1WF      WF67119  15.715  14.925   5.937  0.0395 -0.2136  0.1838
    1WF      WF67120  22.148  10.423   9.163  0.3626 -0.0867  0.2119
    1WF      WF67121  27.346   2.680   0.963 -0.1391 -0.0113 -0.0254
    1WF      WF67122   5.155   6.315   1.563  0.0414 -0.1153  0.1152
    1WF      WF67123  28.109  16.841   0.721  0.0368 -0.1964  0.3722
    1WF      WF67124   6.059   4.837   0.053 -0.2030 -0.1918 -0.0465
    1WF      WF67125  26.068  26.718   7.326 -0.0860 -0.3132 -0.0549
    1WF      WF67126  13.950  23.854   9.344  0.0213 -0.0934  0.2211
    1WF      WF67127  12.675  25.658   1.984  0.4444  0.2567  0.0529
    1WF      WF67128  15.760  18.173   0.909  0.1658 -0.0869 -0.0027
    1WF      WF67129  14.871  18.141   8.572 -0.2277 -0.0336  0.4060
    1WF      WF67130  15.528   0.074   6.998  0.1901 -0.4002  0.1625
    1WF      WF67131   8.619  21.315   7.391  0.2223 -0.4456  0.2673
    1WF      WF67132  12.939  13.924   2.401  0.3459 -0.1933 -0.1204
    1WF      WF67133   2.182  21.527   7.578  0.0956  0.3148 -0.1587
    1WF      WF67134  20.431  13.067   9.261  0.1095 -0.1759  0.1424
    1WF      WF67135   2.940  28.634   8.735  0.0445 -0.1402  0.0709
    1WF      WF67136   9.317  16.237   0.986 -0.1056  0.2652 -0.0589
    1WF      WF67137  12.949   2.495   2.514 -0.1215 -0.0652 -0.0105
    1WF      WF67138  22.221  10.361   1.286 -0.2554  0.2907 -0.2657
    1WF      WF67139   1.496  15.694   8.574  0.2541  0.0416  0.0409
    1WF      WF67140  24.872  10.589   0.044 -0.1533  0.1212 -0.1009
    1WF      WF67141  24.780  19.474   0.362 -0.0233 -0.1897  0.4341
    1WF      WF67142  15.699  29.826   3.359  0.1160 -0.0906 -0.2379
    1WF      WF67143  29.778  21.948   5.935 -0.0342  0.0409 -0.1563
    1WF      WF67144   9.011  24.330   7.289  0.1428 -0.0856  0.0927
    1WF      WF67145  27.880  20.082   5.896  0.0060  0.0714 -0.1323
    1WF      WF67146  21.989  19.601   0.263  0.1534 -0.2094  0.2263
    1WF      WF67147   4.436   5.870   7.403 -0.0319 -0.1584  0.0093
    1WF      WF67148  21.691   4.979   2.558  0.1843 -0.2944 -0.2029
    1WF      WF67149   5.751  16.731   1.735  0.0538  0.0407  0.1642
    1WF      WF67150   1.570  25.373   8.961  0.0957 -0.0122  0.0253
    1WF      WF67151  14.739  25.478   7.785 -0.1518 -0.3015 -0.0555
    1WF      WF67152  27.727  10.041   8.106 -0.0256 -0.3221  0.0142
    1WF      WF67153   1.376  18.611   8.754  0.0599 -0.0718  0.2269
    1WF      WF67154   8.796  29.706   7.267 -0.0253 -0.0285  0.1334
    1WF      WF67155  29.324  23.732   1.534 -0.0201 -0.1355  0.0334
    1WF      WF67156  16.925   8.164   2.150 -0.0330  0.0864 -0.1100
    1WF      WF67157  12.807  23.837   8.995  0.0146 -0.1208  0.0802
    1WF      WF67158  21.471  26.425   0.620  0.1969 -0.2665 -0.0533
    1WF      WF67159  17.503   6.874   0.845 -0.1324  0.0751 -0.1872
    1WF      WF67160   3.880   9.587   7.978 -0.0509 -0.1570 -0.2170
    1WF      WF67161  26.567  23.262   0.662  0.0554 -0.2242  0.2163
    1WF      WF67162  22.691  20.937   7.926 -0.2547  0.0413 -0.0561
    1WF      WF67163  28.174  14.566   8.601 -0.0355 -0.0328 -0.1232
    1WF      WF67164  22.166  12.127   0.775  0.4781 -0.0587 -0.0221
    1WF      WF67165  10.282   4.693   6.925 -0.1496 -0.1659  0.3726
    1WF      WF67166  19.118  26.217   7.625 -0.1677 -0.1278  0.1834
    1WF      WF67167  29.186   7.692   8.974 -0.1020 -0.2378  0.3563
    1WF      WF67168  18.528   6.502   1.038 -0.1478 -0.0921 -0.2645
    1WF      WF67169  14.208  28.999   8.865  0.0647 -0.1897 -0.4029
    1WF      WF67170   5.793   0.194   2.698 -0.3130  0.2262 -0.1937
    1WF      WF67171  17.512  18.295   8.270 -0.1834  0.1108  0.2139
    1WF      WF67172  22.542   3.255   1.809  0.0318  0.0708 -0.4053
    1WF      WF67173   6.065  21.637   8.143  0.1469 -0.3069  0.0071
    1WF      WF67174  25.215   2.067   6.842 -0.4284 -0.2706 -0.0480
    1WF      WF67175   4.320   3.634   9.026  0.0791 -0.5021 -0.1800
    1WF      WF67176   1.633  21.340   7.713 -0.1628  0.3101 -0.2504
    1WF      WF67177   2.091  21.499   9.159  0.0600  0.4412 -0.0272
    1WF      WF67178   9.323  15.884   6.121 -0.1333 -0.2573  0.0716
    1WF      WF67179  17.360   1.741   2.957 -0.1147  0.5176 -0.2507
    1WF      WF67180   4.813  19.080   8.085  0.1639 -0.1403 -0.0898
    1WF      WF67181   3.977  24.846   0.796 -0.0435 -0.0767 -0.1418
    1WF      WF67182   1.291  11.785   9.161 -0.2195  0.0115  0.1041
    1WF      WF67183  27.607  13.661   9.380  0.1288 -0.1281 -0.0990
    1WF      WF67184  11.446  19.835   7.883 -0.3022  0.2844 -0.2018
    1WF      WF67185  18.760  13.748   0.939 -0.1307  0.1607  0.1189
    1WF      WF67186   3.449  28.600   8.460  0.1633 -0.1174  0.0809
    1WF      WF67187  28.191  29.024   7.467 -0.2991  0.1574 -0.2588
    1WF      WF67188   7.743  16.539   2.132 -0.1655 -0.0085 -0.2743
    1WF      WF67189   5.005  27.482   1.214 -0.2108 -0.0030 -0.2926
    1WF      WF67190  13.394  29.283   2.757 -0.2976 -0.0124  0.0598
    1WF      WF67191  15.551   3.766   0.867 -0.1390  0.1052  0.0497
    1WF      WF67192  25.573  23.979   0.818  0.3054  0.0083  0.1525
    1WF      WF67193  19.922  16.635   9.050  0.1485 -0.0578  0.3859
    1WF      WF67194   7.120   5.635   6.190 -0.0279  0.3658  0.0923
    1WF      WF67195  16.352  17.082   7.870  0.2109 -0.0493 -0.0186
    1WF      WF67196  15.823   0.228   9.238  0.0692  0.0621  0.0524
    1WF      WF67197  11.265   1.450   2.272  0.1480 -0.1788  0.3055
    1WF      WF67198   7.304  19.735   9.135  0.0688  0.0195  0.1528
    1WF      WF67199   0.274  20.693   1.069  0.0406  0.1320 -0.0189
    1WF      WF67200   6.477   7.021   1.609 -0.1553 -0.0155 -0.1896
    1WF      WF67201  15.954  25.202   7.544 -0.1676 -0.0021  0.0951
    1WF      WF67202  12.806  25.736   8.793 -0.0112  0.0759 -0.0927
    1WF      WF67203  27.395  13.907   8.539 -0.1240 -0.0912  0.1761
    1WF      WF67204   6.033  13.883   8.864 -0.2862 -0.0484  0.3162
    1WF      WF67205  10.628  27.236   8.144  0.1176 -0.0168 -0.2559
    1WF      WF67206  23.948   3.296   0.878  0.1447  0.0062 -0.1073
    1WF      WF67207   4.654  22.409   0.472 -0.0190 -0.0090 -0.0653
    1WF      WF67208   8.430  16.479   7.214  0.0177 -0.0901  0.0867
    1WF      WF67209  20.068   4.899   2.193  0.1367 -0.2229 -0.2127
    1WF      WF67210  23.509  19.102   8.850 -0.0624 -0.3191  0.1731
    1WF      WF67211  13.141   7.662   0.595 -0.1782  0.0764 -0.3186
    1WF      WF67212   7.021   4.418   0.706 -0.0683  0.2998  0.0213
    1WF      WF67213  14.030  20.315   7.967 -0.0026  0.2210  0.1012
    1WF      WF67214   2.889   1.580   9.156 -0.2852  0.2434 -0.0261
    1WF      WF67215  12.289  24.844   7.542 -0.0263  0.0890 -0.1436
    1WF      WF67216  14.309  21.419   1.514 -0.1574 -0.0127  0.0365
    1WF      WF67217  19.606   9.718   0.999 -0.0259  0.0736  0.0245
    1WF      WF67218  26.978   2.801   0.663 -0.2296  0.1622 -0.0078
    1WF      WF67219  12.421  24.369   1.771 -0.0663  0.1491 -0.0763
    1WF      WF67220  16.023  20.192   0.158  0.0388  0.5406  0.1911
    1WF      WF67221   8.437   6.097   7.722 -0.0056  0.1903 -0.0249
    1WF      WF67222   8.562  17.233   0.696  0.0090  0.2577 -0.1725
    1WF      WF67223  18.913  28.747   0.378 -0.2264  0.0060  0.2618
    1WF      WF67224   3.175  13.200   0.136  0.2857  0.0712  0.3172
    1WF      WF67225  13.784  29.310   2.339 -0.1087  0.1559  0.1101
    1WF      WF67226   4.844   9.759   0.606  0.0585 -0.2656 -0.3473
    1WF      WF67227  10.762  26.687   0.385  0.0854  0.1862  0.0894
    1WF      WF67228  20.702  24.525   7.077  0.0758 -0.2990 -0.1889
    1WF      WF67229   8.513   8.371   1.328  0.0580  0.3219 -0.0277
    1WF      WF67230  29.553  20.820   9.257  0.2624  0.0164 -0.2012
    1WF      WF67231  22.699  29.646   1.593  0.1080 -0.3484 -0.0013
    1WF      WF67232   2.634  14.889   9.043 -0.0800 -0.0408 -0.2342
    1WF      WF67233  25.542  29.097   3.315  0.1266  0.0949 -0.0274
    1WF      WF67234  17.007  18.325   5.595  0.1135 -0.2605  0.1076
    1WF      WF67235  19.179   3.162   3.199  0.0947 -0.1262 -0.0563
    1WF      WF67236  15.521  14.456   0.822  0.0325  0.2994  0.1419
    1WF      WF67237  11.349   5.184   8.299 -0.0954 -0.1374 -0.0425
    1WF      WF67238   4.741   4.263   0.908 -0.0282 -0.0703  0.2275
    1WF      WF67239  19.605  18.680   8.316  0.1823 -0.0085  0.4956
    1WF      WF67240  19.491  20.854   8.609  0.1489 -0.3748 -0.1160
    1WF      WF67241  20.218  13.539   1.460  0.1455 -0.1185 -0.2684
    1WF      WF67242   9.102  22.013   7.890 -0.2566 -0.0389  0.1991
    1WF      WF67243  14.800  22.929   9.404  0.0715  0.3144  0.1530
    1WF      WF67244   2.118  24.146   9.505 -0.4008 -0.2074 -0.0842
    1WF      WF67245   3.382  16.825   8.923  0.3593 -0.3106 -0.1400
    1WF      WF67246  12.688   1.413   3.940 -0.0888 -0.0475 -0.0225
    1WF      WF67247  11.729  15.547   7.100  0.0956  0.4061  0.0488
    1WF      WF67248   7.234  11.665   1.723  0.2467 -0.1154 -0.0722
    1WF      WF67249  24.304   4.831   3.108  0.2740 -0.2791 -0.3307
    1WF      WF67250  25.513  15.993   9.401  0.0280  0.1778  0.0193
    1WF      WF67251  16.471   7.006   0.828  0.0699  0.1948 -0.0518
    1WF      WF67252   0.031   5.818   9.371 -0.1042 -0.0988 -0.0934
    1WF      WF67253   8.085   3.138   7.842  0.0298  0.0350 -0.1604
    1WF      WF67254  25.859  27.871   6.314  0.0970 -0.1016 -0.0449
    1WF      WF67255  19.737   2.039   3.162 -0.0470  0.1751  0.0638
    1WF      WF67256  18.894  10.796   1.266  0.2216 -0.3909 -0.1481
    1WF      WF67257  13.352  28.905   0.913 -0.1288 -0.2898  0.3491
    1WF      WF67258  19.407   8.881   3.294  0.1468  0.2149 -0.1483
    1WF      WF67259  28.877  19.403   7.670 -0.2037  0.1130  0.0496
    1WF      WF67260   6.416   0.329   9.269 -0.1241  0.2426 -0.3695
    1WF      WF67261   6.117  21.105   7.931  0.1729  0.0866 -0.0477
    1WF      WF67262  12.309  14.358   9.066  0.4083 -0.1539  0.0915
    1WF      WF67263  14.723  16.358   8.020  0.0334  0.1605 -0.2226
    1WF      WF67264  29.841  19.630   2.368  0.1325 -0.1742 -0.0149
    1WF      WF67265  21.724  17.244   0.743 -0.3896 -0.0178  0.2682
    1WF      WF67266   0.914   3.815   8.609 -0.1301 -0.3507  0.0533
    1WF      WF67267  22.024   1.153   3.698  0.1638  0.2448 -0.1606
    1WF      WF67268  29.421  14.767   7.674  0.1211 -0.2196 -0.2045
    1WF      WF67269  23.173   3.467   0.211 -0.0224 -0.2121  0.2663
    1WF      WF67270  29.551  25.293   7.300  0.1447  0.1052  0.0060
    1WF      WF67271  13.754  20.138   0.920  0.1763 -0.1247  0.0557
    1WF      WF67272  21.571   0.720   7.302 -0.3591  0.1937  0.3439
    1WF      WF67273  24.636  16.808   8.287  0.2184 -0.2754 -0.0397
    1WF      WF67274   9.388  23.058   9.484  0.0312  0.2470 -0.0352
    1WF      WF67275  13.004  25.651   0.312 -0.2813 -0.1065  0.2051
    1WF      WF67276  11.241   0.612   8.778  0.1382  0.0471  0.0511
    1WF      WF67277   9.260  28.373   9.112 -0.1153 -0.0190 -0.3817
    1WF      WF67278   6.488  23.289   9.094 -0.0358  0.3591 -0.3860
    1WF      WF67279   4.091  15.753   1.474 -0.1504 -0.0514 -0.2254
    1WF      WF67280  16.359   1.917   1.240 -0.0418  0.1689  0.1194
    1WF      WF67281  25.313  23.621   2.310 -0.0795 -0.1365  0.0476
    1WF      WF67282  21.526  20.325   7.816 -0.1083 -0.0866 -0.0620
    1WF      WF67283   3.956  14.320   7.736  0.0143 -0.1766  0.1436
    1WF      WF67284  11.694  12.318   6.344 -0.2202  0.1112  0.1152
    1WF      WF67285   8.974  20.283   0.217 -0.0942  0.1911  0.0527
    1WF      WF67286  11.703  26.128   9.328  0.0389  0.1928  0.1571
    1WF      WF67287   1.960  24.332   7.278 -0.3233 -0.1194  0.0951
    1WF      WF67288   9.850   7.198   9.146 -0.0748  0.0168 -0.1434
    1WF      WF67289  18.562  14.204   0.929 -0.2043  0.2264  0.1654
    1WF      WF67290  10.547  14.790   0.918 -0.0800  0.2266  0.2304
    1WF      WF67291  15.399   4.661   2.863  0.2413 -0.1765 -0.0565
    1WF      WF67292  26.107   5.585   0.920 -0.1019  0.1308 -0.0834
    1WF      WF67293   6.658  25.387   0.801 -0.1023  0.3375  0.0695
    1WF      WF67294  21.388  23.026   6.572 -0.3600 -0.1666 -0.0582
    1WF      WF67295  22.399   2.783   0.262  0.1081 -0.0515 -0.1379
    1WF      WF67296  19.551   7.081   9.377 -0.0434  0.1367  0.2048
    1WF      WF67297   2.526  26.428   9.032  0.0395 -0.3006 -0.2096
    1WF      WF67298  28.403  10.519   8.473  0.4006 -0.1020 -0.1011
    1WF      WF67299  23.882  15.683   8.872  0.0932  0.0388 -0.1274
    1WF      WF67300   5.722   7.028   2.770  0.1066 -0.1516  0.4623
    1WF      WF67301   9.127  13.755   8.308  0.2032  0.0173  0.0179
    1WF      WF67302  23.255  20.635   8.770 -0.0400 -0.3095  0.1478
    1WF      WF67303   9.384   6.865   9.200  0.0693  0.1167  0.1725
    1WF      WF67304   6.380  16.099   8.108 -0.0480 -0.2249 -0.0272
    1WF      WF67305  11.082  29.060   6.811 -0.2238  0.2438  0.1783
    1WF      WF67306  27.931  18.603   3.392 -0.0932  0.2076 -0.1498
    1WF      WF67307   4.814   9.416   8.719  0.0754  0.1551 -0.1510
    1WF      WF67308  23.967  27.333   9.248  0.3647  0.0210  0.2638
    1WF      WF67309  11.530   8.857   7.192 -0.2408  0.0640 -0.0742
    1WF      WF67310   6.379  10.234   9.123 -0.0811 -0.3198 -0.0854
    1WF      WF67311   3.333  20.372   0.572  0.0127  0.1809  0.2467
    1WF      WF67312  11.334  13.182   7.878  0.0184 -0.2345  0.1145
    1WF      WF67313  20.103   0.593   1.821  0.0957 -0.1351  0.0788
    1WF      WF67314  25.632   0.136   9.145 -0.0217 -0.1253  0.2019
    1WF      WF67315   6.550   5.368   1.767 -0.0725 -0.1447 -0.0267
    1WF      WF67316  15.578  24.405   8.182 -0.0755 -0.0431  0.2189
    1WF      WF67317  27.217   9.904   7.984  0.2022 -0.4996 -0.1682
    1WF      WF67318  12.616  27.846   8.872  0.2958  0.0375 -0.1056
    1WF      WF67319  10.774  20.625   7.876  0.1492 -0.0985 -0.2457
    1WF      WF67320  21.676  12.180   0.799 -0.2416  0.0442  0.0136
    1WF      WF67321   6.552   3.334   1.656 -0.1209  0.1450  0.1413
    1WF      WF67322   9.178  21.097   5.822  0.2304 -0.0935  0.0296
    1WF      WF67323  21.072  11.836   8.186 -0.0803  0.1602  0.2071
    1WF      WF67324   9.107  20.536   8.405  0.0185  0.2050  0.0092
    1WF      WF67325   2.414  25.153   7.056  0.1187 -0.0057  0.1563
    1WF      WF67326  29.253   8.622   0.470  0.1143 -0.0971 -0.0116
    1WF      WF67327  23.776  21.972   0.920  0.0530  0.4064  0.0383
    1WF      WF67328  10.220  20.666   7.751  0.1099 -0.1147  0.0428
    1WF      WF67329   8.707   2.485   1.595 -0.0367  0.0494 -0.2005
    1WF      WF67330   5.389   9.535   9.489 -0.3446 -0.0894  0.1690
    1WF      WF67331  18.599  26.439   8.382  0.1000 -0.3794  0.0303
    1WF      WF67332  26.060  18.691   9.124 -0.1440 -0.2333  0.2676
    1WF      WF67333  27.354  17.875   9.241  0.2729  0.0009  0.2526
    1WF      WF67334  28.055  22.431   0.906 -0.2225 -0.4725 -0.0185
    1WF      WF67335   7.500  25.425   8.394  0.1236 -0.0045  0.1710
    1WF      WF67336  23.185  20.973   7.672  0.0544 -0.2975  0.3695
    1WF      WF67337  28.490  19.772   6.480 -0.3071  0.2495  0.1947
    1WF      WF67338   3.329  25.382   8.985  0.0201  0.0820  0.3422
    1WF      WF67339  22.319   9.502   9.249 -0.1698 -0.1856  0.2662
    1WF      WF67340  18.238   8.110   1.059  0.1267 -0.0312  0.1155
    1WF      WF67341  27.017  12.880   7.352 -0.0881  0.1007 -0.0544
    1WF      WF67342  12.172   0.719   0.558  0.2361  0.2429 -0.0733
    1WF      WF67343  11.770   3.834   9.453 -0.1165 -0.2120  0.1138
    1WF      WF67344  18.670  19.877   7.228  0.3146  0.1164  0.1746
    1WF      WF67345  25.329  16.092   8.961 -0.1104  0.1749 -0.0740
    1WF      WF67346   8.586  24.121   7.225 -0.1826 -0.0083  0.0306
    1WF      WF67347  23.604  20.259   8.699 -0.0917 -0.3028  0.2320
    1WF      WF67348  24.541  18.143   9.156  0.0658  0.3432  0.4611
    1WF      WF67349  15.146  18.222   1.553 -0.2144 -0.0567 -0.0590
    1WF      WF67350  21.602  22.940   9.033 -0.0855 -0.0771  0.1527
    1WF      WF67351   5.698   5.734   7.682  0.1865 -0.1381  0.0147
    1WF      WF67352   5.770  17.516   8.037 -0.3934  0.3110  0.1463
    1WF      WF67353   8.610  25.963   7.296  0.1790  0.1634  0.1876
    1WF      WF67354   4.965   9.097   8.314  0.1853  0.1031  0.0496
    1WF      WF67355   9.307  17.699   7.585 -0.1577 -0.2583 -0.3032
    1WF      WF67356   2.754   3.399   1.305 -0.3293 -0.1267 -0.2857
    1WF      WF67357  26.604  13.591   8.338 -0.0982 -0.0062  0.5060
    1WF      WF67358   4.940   5.586   0.599  0.2650  0.1160 -0.0716
    1WF      WF67359  14.179   8.626   1.407 -0.3729  0.1309  0.0678
    1WF      WF67360  27.996  29.050   0.760 -0.1283  0.0432  0.0863
    1WF      WF67361   6.939  10.100   7.099 -0.2286 -0.0668  0.0235
    1WF      WF67362   1.112  21.095   0.587  0.1208 -0.4185 -0.1379
    1WF      WF67363  24.756  10.526   7.284 -0.3458  0.1976  0.3024
    1WF      WF67364  10.650  12.504   7.062 -0.0393  0.1663 -0.2493
    1WF      WF67365   9.258  10.531   8.795 -0.1021  0.1420  0.3317
    1WF      WF67366  16.342  16.086   7.972 -0.0537 -0.0192 -0.2870
    1WF      WF67367  12.131  24.315   1.204 -0.2611 -0.0851  0.1816
    1WF      WF67368  26.259  18.919   2.293  0.1137 -0.0672  0.2729
    1WF      WF67369  24.065  28.916   9.153 -0.3386 -0.3303  0.2611
    1WF      WF67370  17.436  12.743   1.678  0.0166 -0.1760  0.0537
    1WF      WF67371   9.697   7.667   9.302  0.3154  0.3472  0.4626
    1WF      WF67372   9.248  18.131   1.142 -0.2045  0.2256  0.2937
    1WF      WF67373  24.812   4.988   2.717 -0.2864  0.3745 -0.1660
    1WF      WF67374  20.195   2.405   2.103  0.1157 -0.0990  0.0115
    1WF      WF67375   9.323  24.565   8.490  0.1819  0.1001  0.3331
    1WF      WF67376  19.959   2.339   2.859 -0.2621  0.0495  0.5375
    1WF      WF67377   1.900  24.529   0.174  0.0619  0.3660  0.0908
    1WF      WF67378  29.435   8.098   8.882  0.0754 -0.2984 -0.3318
    1WF      WF67379  20.420  29.809   0.286 -0.1561 -0.0376 -0.2714
    1WF      WF67380   9.440  13.379   8.138  0.4197 -0.2147 -0.2377
    1WF      WF67381  12.542  11.861   7.605  0.0559 -0.1929 -0.1091
    1WF      WF67382   8.881   2.750   0.985 -0.3058 -0.2681  0.3097
    1WF      WF67383   6.283  28.882   8.114  0.1906 -0.1750 -0.2447
    1WF      WF67384  25.740  15.977   7.271  0.1251  0.0274 -0.0486
    1WF      WF67385  16.625  10.153   7.613 -0.2984 -0.1145  0.0615
    1WF      WF67386  20.365   0.189   9.378 -0.2197 -0.2010  0.1693
    1WF      WF67387   0.011  23.161   1.397  0.1364 -0.4748 -0.2517
    1WF      WF67388  17.724   1.882   3.676 -0.1122  0.2118 -0.0753
    1WF      WF67389   1.821  21.233   8.800  0.0719  0.1509  0.0407
    1WF      WF67390   6.087   7.447   8.733 -0.0606 -0.1426 -0.0216
    1WF      WF67391  26.537  11.195   0.300  0.0801 -0.1220  0.0141
    1WF      WF67392  17.330  23.782   1.572 -0.0514 -0.2835  0.0597
    1WF      WF67393   6.320  29.654   8.154 -0.1673  0.0286 -0.1194
    1WF      WF67394  27.082   3.471   1.941  0.1596  0.2051 -0.2720
    1WF      WF67395  28.295   4.064   8.775  0.2760 -0.2471  0.0901
    1WF      WF67396  18.258  26.434   5.639  0.1412 -0.0695 -0.1776
    1WF      WF67397  19.399  19.439   0.536  0.1654  0.0306 -0.0639
    1WF      WF67398  16.283  21.598   8.926  0.3905  0.5104 -0.1823
    1WF      WF67399  21.678  15.510   0.808  0.0117  0.0944  0.2423
    1WF      WF67400   7.221   1.567   1.100 -0.0234 -0.1070 -0.0067
    1WF      WF67401   3.874   3.635   9.293  0.0024  0.0630  0.2810
    1WF      WF67402  11.845  10.536   1.148  0.1445  0.1209 -0.0426
    1WF      WF67403   3.426   9.081   1.206 -0.0075  0.1547 -0.0543
    1WF      WF67404  26.431  22.863   9.263  0.1679 -0.0565 -0.0616
    1WF      WF67405  22.805  28.972   0.630 -0.2345  0.2973 -0.2043
    1WF      WF67406  14.997  29.530   1.164  0.0711 -0.0886  0.0703
    1WF      WF67407  27.992   9.361   9.402 -0.0827 -0.1076  0.3427
    1WF      WF67408   5.082  15.463   6.932 -0.0724 -0.0290 -0.1510
    1WF      WF67409  27.301   6.800   2.961 -0.1470  0.1092  0.1356
    1WF      WF67410  21.965   2.805   0.015  0.0296 -0.2175 -0.1129
    1WF      WF67411  14.935  10.170   1.102 -0.2570 -0.0744 -0.0709
    1WF      WF67412  20.337  18.604   8.600  0.0517  0.1325 -0.3391
    1WF      WF67413   5.926  26.939   9.500  0.1892  0.2666 -0.1230
    1WF      WF67414  26.819   9.580   0.471  0.0974 -0.1395  0.1150
    1WF      WF67415  27.429  11.521   1.030  0.0923  0.0230 -0.1529
    1WF      WF67416   6.907   6.170   0.090 -0.0240 -0.0877 -0.0895
    1WF      WF67417  19.560  25.411   0.215 -0.0562 -0.0486  0.0672
    1WF      WF67418  26.477  23.727   0.922  0.2716 -0.1398 -0.1306
    1WF      WF67419  29.276   7.302   8.627  0.0877 -0.0603  0.0569
    1WF      WF67420  24.346  14.865   8.661  0.1666  0.0934  0.0178
    1WF      WF67421  17.024  13.780   8.717  0.1980 -0.0983 -0.1481
    1WF      WF67422  25.889  23.590   1.533  0.3094  0.0640 -0.0491
    1WF      WF67423   8.100   3.591   8.140  0.2128  0.2152  0.0132
    1WF      WF67424   4.144  21.424   9.363  0.1181 -0.1228 -0.0790
    1WF      WF67425  23.354   0.421   9.347 -0.0280 -0.0789  0.1073
    1WF      WF67426  16.270   0.998   8.035 -0.1575 -0.2402 -0.1733
    1WF      WF67427  27.283   8.078   0.740  0.1931  0.0446 -0.0490
    1WF      WF67428  19.160  14.892   8.284 -0.0950  0.1373  0.1448
    1WF      WF67429   3.440  24.079   6.788  0.1284  0.2137  0.1176
    1WF      WF67430  16.826  14.243   8.993  0.2374 -0.3000 -0.1822
    1WF      WF67431  25.300   2.897   8.592  0.1914 -0.1679 -0.1910
    1WF      WF67432   0.856   3.914   0.213 -0.4258  0.0433  0.1727
    1WF      WF67433   7.394  15.988   0.814  0.1587  0.1012 -0.0853
    1WF      WF67434  26.672   1.824   2.980  0.1060 -0.2982 -0.0080
    1WF      WF67435  14.521  25.306   0.928  0.0437 -0.0606  0.0956
    1WF      WF67436  14.303  28.472   8.936 -0.0289  0.0788  0.0523
    1WF      WF67437  28.149   9.682   8.227 -0.3194 -0.0132 -0.0267
    1WF      WF67438   7.674  23.120   6.718 -0.2034  0.1438 -0.1571
    1WF      WF67439  13.578   7.539   2.623 -0.0176 -0.0521  0.1323
    1WF      WF67440   9.103  29.035   6.233 -0.2031  0.0506  0.0506
    1WF      WF67441   6.607  11.375   1.039  0.0793  0.0228 -0.3164
    1WF      WF67442   9.297   4.099   9.149 -0.0841 -0.3400 -0.1522
    1WF      WF67443   4.059  11.306   0.663  0.0384 -0.2323 -0.1035
    1WF      WF67444  25.251  26.385   8.707  0.2212 -0.1382  0.0741
    1WF      WF67445  22.633  26.813   0.228  0.2878  0.0002 -0.0829
    1WF      WF67446  11.602  20.347   0.264 -0.2154  0.0971  0.4786
    1WF      WF67447  23.271  17.335   0.605 -0.4546 -0.1408 -0.4547
    1WF      WF67448  29.109  25.640   0.282  0.0236 -0.0553 -0.1919
    1WF      WF67449  22.179   7.076   1.347 -0.2268  0.0222 -0.0219
    1WF      WF67450   5.111  26.042   2.166  0.0015  0.1996 -0.0013
    1WF      WF67451  19.207   8.792   0.463 -0.0230  0.1917 -0.1743
    1WF      WF67452  21.124  17.048   8.610  0.3849 -0.0206 -0.1107
    1WF      WF67453   4.780  18.509   0.003 -0.0960 -0.1241 -0.1910
    1WF      WF67454  25.387  20.515   1.589  0.0534 -0.2771 -0.0619
    1WF      WF67455   6.128  18.799   8.715 -0.2474 -0.0951 -0.0460
    1WF      WF67456  20.260  10.795   1.399  0.1974  0.1827 -0.1944
    1WF      WF67457   6.993   2.740   8.658  0.1641  0.5136 -0.0853
    1WF      WF67458  28.951   5.186   7.629 -0.0707 -0.5264 -0.1870
    1WF      WF67459   4.603   1.392   1.883 -0.0462 -0.0217 -0.0023
    1WF      WF67460   5.005  24.234   8.176  0.1404 -0.1841  0.1853
    1WF      WF67461   0.589   9.275   0.456 -0.1798 -0.0808 -0.0468
    1WF      WF67462   2.108   7.150   8.214  0.1489 -0.0955 -0.0914
    1WF      WF67463  20.784   0.699   1.073  0.1272  0.1659  0.1800
    1WF      WF67464   8.797  25.634   7.685  0.4160 -0.1412 -0.2583
    1WF      WF67465   1.140   0.941   1.700  0.1811  0.1120 -0.3142
    1WF      WF67466  27.482   4.567   8.699 -0.1378 -0.0298 -0.1864
    1WF      WF67467   0.452  17.720   6.959 -0.2385 -0.1766 -0.0516
    1WF      WF67468  11.683  23.862   7.536  0.3213 -0.2297  0.0493
    1WF      WF67469  12.387  29.833   7.196  0.0578 -0.0801  0.0553
    1WF      WF67470  29.523  12.339   0.436  0.1772 -0.1834 -0.2888
    1WF      WF67471  16.762  26.535   7.226 -0.0160  0.1737 -0.1982
    1WF      WF67472   7.075  15.888   8.613  0.0167  0.2549  0.1205
    1WF      WF67473   0.851  10.810   7.849 -0.1223  0.2099  0.2085
    1WF      WF67474  27.838   5.478   1.428  0.0547 -0.2792 -0.1136
    1WF      WF67475  27.136   4.724   1.606  0.1853 -0.0504  0.1172
    1WF      WF67476  27.416   2.178   0.819  0.0367  0.1759  0.1158
    1WF      WF67477  21.154  26.738   0.394 -0.2268  0.1387 -0.2145
    1WF      WF67478  22.002   3.222   8.637 -0.1123 -0.0281  0.0294
    1WF      WF67479  15.971   9.550   0.361 -0.0348  0.0911  0.1283
    1WF      WF67480  19.823   4.438   2.137 -0.4265  0.2259 -0.0885
    1WF      WF67481  17.750   1.831   2.665 -0.0257 -0.0532 -0.1472
    1WF      WF67482  20.298   0.217   7.424 -0.0198  0.1236 -0.2329
    1WF      WF67483   2.195  26.041   7.312  0.1906  0.1676 -0.1041
    1WF      WF67484  29.148   3.416   1.626  0.2200 -0.0098  0.4602
    1WF      WF67485  15.498   4.499   2.378 -0.0836  0.0206  0.1915
    1WF      WF67486  23.450  14.576   8.539  0.0426  0.1010  0.0529
    1WF      WF67487  28.500  10.394   1.748 -0.0178 -0.0839  0.1945
    1WF      WF67488   3.943   5.924   3.192  0.1566  0.0903 -0.0717
    1WF      WF67489  20.467  10.725   0.910 -0.0620  0.1101 -0.0435
    1WF      WF67490   0.674  19.675   1.283 -0.0951  0.1183  0.4886
    1WF      WF67491  18.966  21.289   7.765 -0.0451 -0.0410 -0.1749
    1WF      WF67492  26.004   4.114   6.861 -0.0780  0.1094  0.0910
    1WF      WF67493  15.732  15.764   9.507  0.2777 -0.2179 -0.0716
    1WF      WF67494   1.177  25.836   9.133 -0.1289  0.0332 -0.0130
    1WF      WF67495   6.611  24.189   8.888 -0.0586  0.2894  0.3383
    1WF      WF67496  17.108   1.319   2.242 -0.0506  0.1932  0.6195
    1WF      WF67497  27.191  19.496   7.924  0.1312  0.0611 -0.3980
    1WF      WF67498  21.055   5.344   1.986 -0.0501  0.0413  0.0863
    1WF      WF67499  22.243  19.912   5.937  0.1005  0.0052  0.0403
    1WF      WF67500  29.857  22.776   1.071 -0.0575 -0.1951  0.1731
    1WF      WF67501  19.523  27.683   3.255  0.3422 -0.2801 -0.1003
    1WF      WF67502   3.655  20.361   0.920 -0.1404 -0.0813  0.1539
    1WF      WF67503  26.603   0.200   2.869  0.2372  0.1412  0.2826
    1WF      WF67504  16.142  11.537   9.155 -0.0846 -0.0608 -0.2571
    1WF      WF67505  13.219  29.268   1.478 -0.0141 -0.0956  0.1138
    1WF      WF67506  23.599  12.245   9.316 -0.0831  0.0275 -0.0641
    1WF      WF67507  16.417   0.332   9.445 -0.1626 -0.3432 -0.3309
    1WF      WF67508  14.778  26.782   7.710 -0.0623 -0.0312 -0.1764
    1WF      WF67509  11.827   3.348   9.171 -0.3080  0.0879  0.1926
    1WF      WF67510  28.728  10.595   8.073  0.1998 -0.2896  0.3000
    1WF      WF67511   0.336  15.468   8.979  0.0689  0.0325 -0.0039
    1WF      WF67512  28.079   7.391   8.160 -0.0573 -0.2517 -0.1875
    1WF      WF67513   9.578  16.496   0.598 -0.0754  0.2213  0.2415
    1WF      WF67514  27.827   8.289   1.202 -0.0002 -0.0681 -0.1530
    1WF      WF67515  13.791  28.578   0.990  0.3363 -0.2196 -0.0639
    1WF      WF67516   2.023   0.168   2.160 -0.0561 -0.0887  0.3698
    1WF      WF67517   0.901  23.690   2.286 -0.0368 -0.0265  0.0300
    1WF      WF67518   8.027  17.000   8.349  0.1202 -0.4071 -0.1951
    1WF      WF67519  28.395  22.286   8.815 -0.0572 -0.0969 -0.0667
    1WF      WF67520  19.037  24.409   8.917 -0.2500 -0.0701 -0.0615
    1WF      WF67521  22.094  17.851   8.264 -0.0584  0.2611  0.1339
    1WF      WF67522  14.425  20.801   0.084 -0.2920 -0.1782  0.2457
    1WF      WF67523  27.914  23.382   0.714  0.0843 -0.0367 -0.0381
    1WF      WF67524  23.729   6.644   2.146  0.2843 -0.2961  0.1300
    1WF      WF67525  22.324  10.827   1.145  0.1205 -0.1949  0.0183
    1WF      WF67526  17.512  12.237   1.272 -0.1114 -0.0036 -0.1516
    1WF      WF67527  20.310  15.894   9.112 -0.3618  0.3421  0.0890
    1WF      WF67528  20.057   3.646   1.274 -0.1948 -0.2265  0.3223
    1WF      WF67529  14.754  25.767   7.327  0.1550 -0.0322  0.1223
    1WF      WF67530  15.796  23.081   8.851  0.4340  0.2408  0.1590
    1WF      WF67531  12.527  22.152   6.290 -0.0496 -0.0534  0.2051
    1WF      WF67532  19.659   3.451   3.461  0.2518  0.0060  0.0273
    1WF      WF67533  25.188  15.343   8.014  0.1012  0.0306 -0.0569
    1WF      WF67534  11.012  18.136   5.875 -0.0618 -0.0861 -0.2587
    1WF      WF67535  16.266   1.405   1.498 -0.2183 -0.0410  0.1879
    1WF      WF67536   5.139   5.465   0.153  0.0029 -0.1313 -0.3856
    1WF      WF67537  23.049  14.128   8.227  0.0054 -0.4490 -0.2571
    1WF      WF67538  12.834  11.520   0.506  0.0374 -0.0723  0.0036
    1WF      WF67539  15.324  22.952   8.982  0.0536 -0.3394  0.0882
    1WF      WF67540  26.758  16.752   1.783 -0.1409 -0.1497 -0.2229
    1WF      WF67541  20.726   8.567   7.734  0.0767  0.0147 -0.1890
    1WF      WF67542   6.694  17.815   0.331 -0.0231  0.0317 -0.0234
    1WF      WF67543  29.821  17.670   2.557  0.1917 -0.2431  0.0548
    1WF      WF67544  22.257  11.153   7.828 -0.2291  0.0910 -0.1113
    1WF      WF67545  12.134   4.499   0.477 -0.0140 -0.3095 -0.0283
    1WF      WF67546  18.762   4.000   0.907  0.2079  0.2278 -0.2945
    1WF      WF67547  29.806  14.704   7.971 -0.2056  0.1529  0.0874
    1WF      WF67548  22.151  20.913   7.760  0.1079 -0.1686 -0.0072
    1WF      WF67549  29.370  27.658   7.844 -0.0849  0.3656  0.0014
    1WF      WF67550  25.932  13.292   9.263 -0.1795  0.0206 -0.0765
    1WF      WF67551   4.819   5.049   9.365  0.3311  0.1076  0.2270
    1WF      WF67552   7.456  16.965   0.470  0.2895 -0.0322 -0.0048
    1WF      WF67553  28.628  23.607   3.152 -0.0554 -0.1999 -0.1036
    1WF      WF67554  29.136   6.887   8.324 -0.0095 -0.0532  0.1822
    1WF      WF67555  28.653   7.429   0.224 -0.0973  0.1611  0.0963
    1WF      WF67556  24.695  16.259   0.225 -0.0853  0.3643  0.2896
    1WF      WF67557  22.994  28.449   1.469 -0.1033  0.2636  0.0799
    1WF      WF67558  29.032   4.822   8.023  0.0783 -0.0040  0.0156
    1WF      WF67559  28.495  18.418   7.978  0.0014 -0.0254  0.0848
    1WF      WF67560   2.226   5.176   6.517 -0.2168 -0.2710 -0.2296
    1WF      WF67561  23.878  14.916   0.280  0.1835 -0.1165 -0.1617
    1WF      WF67562  22.085   6.155   1.405  0.2296  0.0916 -0.1563
    1WF      WF67563  14.940  25.503   0.720 -0.2154 -0.3006 -0.0031
    1WF      WF67564  13.346  28.979   2.318 -0.1127 -0.2089  0.3529
    1WF      WF67565   4.946   9.478   1.025 -0.0350  0.0956 -0.1889
    1WF      WF67566  10.407  25.973   1.906  0.1810 -0.2123  0.3096
    1WF      WF67567  29.664  21.078   1.751  0.0809 -0.2590  0.0350
    1WF      WF67568   5.261  12.015   6.968 -0.2922  0.1576  0.0137
    1WF      WF67569  21.106   1.143   1.023  0.0043  0.1478 -0.1793
    1WF      WF67570  10.010  26.365   9.376 -0.1205 -0.0823 -0.0667
    1WF      WF67571  17.683  18.406   8.811  0.1833 -0.4408  0.1716
    1WF      WF67572   0.249  11.163   0.787  0.1888  0.1348  0.2409
    1WF      WF67573  20.274  25.958   0.632 -0.3242  0.1209  0.1591
    1WF      WF67574  18.370   9.251   1.079 -0.1353  0.1884 -0.3392
    1WF      WF67575  23.751  24.002   6.305 -0.0731 -0.0102  0.1751
    1WF      WF67576  21.341   0.901   1.449  0.0885 -0.0161 -0.0501
    1WF      WF67577  11.342   8.696   7.588  0.0477 -0.2230 -0.1187
    1WF      WF67578   1.480   8.362   2.085 -0.0685  0.3507 -0.1794
    1WF      WF67579   5.590   5.388   7.304 -0.0588 -0.5295  0.2765
    1WF      WF67580   5.116   5.164   1.518 -0.0248  0.0000 -0.0671
    1WF      WF67581  25.424  23.840   1.301  0.0870 -0.1981  0.1376
    1WF      WF67582  25.740  21.041   0.122 -0.1252 -0.2531  0.0852
    1WF      WF67583   5.826  21.602   0.551  0.1535 -0.0958  0.4384
    1WF      WF67584  18.659  12.442   1.265  0.1174 -0.0641 -0.2545
    1WF      WF67585   3.837  14.977   3.328  0.2448  0.3160 -0.0093
    1WF      WF67586  24.778  10.263   1.201 -0.0363  0.1070 -0.0267
    1WF      WF67587  25.209  18.000   2.530 -0.1698 -0.2269 -0.2046
    1WF      WF67588  28.014   4.610   6.354 -0.1556  0.2367 -0.2218
    1WF      WF67589   4.613  11.002   9.380  0.0648 -0.4647 -0.0217
    1WF      WF67590   5.315   6.735   3.015  0.3449 -0.0672 -0.0478
    1WF      WF67591  21.750  17.427   8.252  0.4068 -0.2860  0.0610
    1WF      WF67592  27.722   1.778   0.846 -0.2242  0.1318  0.3742
    1WF      WF67593   7.500  27.262   6.312 -0.0811  0.1312 -0.3510
    1WF      WF67594   0.097  12.569   0.568 -0.1353  0.3007  0.0387
    1WF      WF67595   4.639  26.873   2.597  0.0629  0.0633 -0.2107
    1WF      WF67596   5.408  13.174   1.038  0.0551  0.2132 -0.2938
    1WF      WF67597  26.477  24.282   0.965  0.0168 -0.2446 -0.0587
    1WF      WF67598  12.949   2.535   0.103  0.1258 -0.0463  0.2706
    1WF      WF67599  10.671  27.435   1.289 -0.3263  0.0436  0.1410
    1WF      WF67600   2.075  26.049   6.770  0.2060 -0.0634  0.4073
    1WF      WF67601  25.009   2.208   0.918 -0.0827 -0.0758 -0.1827
    1WF      WF67602  10.346   6.583   9.279  0.0601  0.1682  0.2064
    1WF      WF67603   1.365  15.314   7.347 -0.1614 -0.0871  0.0325
    1WF      WF67604  22.318  15.471   8.438 -0.0790 -0.3049  0.2825
    1WF      WF67605   2.569  24.812   6.715  0.1843 -0.1427 -0.1862
    1WF      WF67606  18.350  21.924   8.540  0.0817  0.1673  0.0813
    1WF      WF67607   1.773   3.464   6.887 -0.1025 -0.0437  0.0593
    1WF      WF67608  19.488  27.663   7.726  0.0719 -0.0721  0.0168
    1WF      WF67609  24.502   7.211   2.161 -0.1556  0.1411 -0.3159
    1WF      WF67610  27.223   1.776   0.801 -0.1169 -0.0335 -0.0912
    1WF      WF67611  17.571  14.499   8.124 -0.1322 -0.1805 -0.1453
    1WF      WF67612  10.349   7.099   9.201  0.0725  0.1267 -0.3877
    1WF      WF67613  23.911   6.260   2.437  0.2845  0.1767 -0.0855
    1WF      WF67614  17.469  13.445   8.682  0.2655  0.1785  0.1909
    1WF      WF67615  23.699   6.512   1.588  0.0350 -0.1378  0.2355
    1WF      WF67616  11.994   8.527   0.644  0.0818 -0.0023  0.1435
    1WF      WF67617   9.009  24.477   0.847 -0.0086 -0.0969 -0.3610
    1WF      WF67618  26.689   3.923   8.366  0.1080  0.1911 -0.0078
    1WF      WF67619  20.528  23.898   0.170  0.3987 -0.0022  0.2095
    1WF      WF67620   9.098   5.958   1.093  0.0057 -0.0047  0.0769
    1WF      WF67621  13.018   9.434   8.293 -0.0630  0.0020  0.0441
    1WF      WF67622   5.670  12.477   0.895 -0.0146  0.2116  0.0770
    1WF      WF67623  16.935   5.700   8.948  0.2231  0.1923  0.0537
    1WF      WF67624   6.703  11.378   6.529  0.0791  0.3916  0.0094
    1WF      WF67625  20.195  26.681   7.031  0.0167  0.2274 -0.1163
    1WF      WF67626  22.334  24.870   7.450 -0.0426  0.1662 -0.3531
    1WF      WF67627   9.630  13.730   7.577 -0.1524 -0.1333  0.1136
    1WF      WF67628  27.434  23.610   8.732 -0.0400 -0.1928 -0.0213
    1WF      WF67629  25.683  17.549   7.926 -0.1815  0.1357  0.1339
    1WF      WF67630  18.616  26.939   8.532  0.0709  0.0276  0.1222
    1WF      WF67631   6.849  19.318   1.002  0.1739 -0.0972  0.0806
    1WF      WF67632  14.981  22.391   5.464 -0.0421  0.3087  0.1523
    1WF      WF67633   8.381  25.818   8.816 -0.0907  0.0888  0.0792
    1WF      WF67634  28.010  23.803   8.737 -0.1690 -0.1350 -0.0878
    1WF      WF67635  14.796   4.411   0.931  0.0182  0.2804  0.1715
    1WF      WF67636   9.267   0.572   9.343 -0.0939  0.1518 -0.1633
    1WF      WF67637  23.004  28.662   7.385 -0.1089  0.1841 -0.0516
    1WF      WF67638   4.266  25.851   8.891  0.2313  0.0872  0.0503
    1WF      WF67639  16.002  21.876   6.074 -0.1650 -0.0914  0.0090
    1WF      WF67640   2.233  24.688   7.052  0.0488 -0.0560  0.0236
    1WF      WF67641  17.266   0.736   0.454 -0.1704  0.0739  0.2429
    1WF      WF67642  11.246   0.575   2.242  0.2917  0.0576 -0.0203
    1WF      WF67643  22.798  23.632   7.916 -0.2604 -0.2156 -0.2008
    1WF      WF67644  24.894  28.458   0.509 -0.0462 -0.1732 -0.0198
    1WF      WF67645  12.106  15.198   8.723 -0.0267  0.1921  0.2454
    1WF      WF67646  26.874   5.353   7.722 -0.3375  0.2109  0.2287
    1WF      WF67647  24.011   8.156   0.260 -0.1438  0.2644  0.0684
    1WF      WF67648   4.746   3.379   8.051 -0.2750  0.0045  0.2414
    1WF      WF67649  20.649   5.312   1.235  0.0732 -0.1183  0.1526
    1WF      WF67650  17.533  16.100   1.638 -0.2011 -0.1159  0.2769
    1WF      WF67651   6.781  15.804   8.164 -0.2001 -0.2355  0.1060
    1WF      WF67652  26.806  14.053   7.798 -0.1189 -0.0037  0.0206
    1WF      WF67653  29.440   8.261   0.910  0.0427  0.2188 -0.2122
    1WF      WF67654  23.890  13.217   8.625 -0.3028 -0.0424 -0.1169
    1WF      WF67655   4.261   0.760   0.094 -0.0420 -0.3977 -0.0269
    1WF      WF67656  15.996  28.200   0.257  0.0850 -0.0989  0.0027
    1WF      WF67657   6.245  29.275   8.616  0.0475 -0.0167  0.0089
    1WF      WF67658  26.016  18.112   1.231  0.1917  0.4661  0.3498
    1WF      WF67659  21.975  22.342   5.895 -0.2506  0.2002 -0.0562
    1WF      WF67660  16.392  21.693   7.282  0.2919  0.0453 -0.2019
    1WF      WF67661   5.840   3.544   0.082 -0.2050 -0.0014 -0.0253
    1WF      WF67662  11.761  20.257   1.911  0.1666 -0.3222 -0.0473
    1WF      WF67663  21.499  19.785   1.126 -0.1200 -0.1598  0.1759
    1WF      WF67664  13.717  21.719   7.276 -0.0853 -0.1321 -0.1173
    1WF      WF67665  14.037  23.884   7.376  0.3008  0.0037 -0.1637
    1WF      WF67666   5.433   7.321   7.841 -0.3005 -0.2128 -0.0319
    1WF      WF67667  15.144   2.383   1.872  0.2732 -0.0719 -0.1230
    1WF      WF67668  13.286  19.596   0.472  0.0791  0.2185  0.2211
    1WF      WF67669   2.134  18.444   1.043 -0.1036 -0.3241  0.2558
    1WF      WF67670   3.035  18.581   1.064 -0.0227 -0.0241 -0.3944
    1WF      WF67671   2.772  13.879   6.542 -0.0649  0.1116 -0.1007
    1WF      WF67672  11.627  15.979   7.187 -0.1076  0.3810 -0.2102
    1WF      WF67673  18.801  15.372   8.059 -0.3046  0.0658 -0.1336
    1WF      WF67674  11.986  20.612   7.708 -0.5175 -0.0880  0.0442
    1WF      WF67675  20.060  12.772   9.486  0.3916 -0.0456 -0.0757
    1WF      WF67676   6.327   9.268   9.525  0.0364 -0.0377 -0.0193
    1WF      WF67677  22.252  21.495   9.094 -0.0842  0.0372  0.2214
    1WF      WF67678   9.517  29.566   2.547  0.0415  0.3367  0.0201
    1WF      WF67679  13.750   5.524   9.296 -0.0602 -0.0799 -0.2756
    1WF      WF67680  24.312   7.710   0.510  0.0184  0.0657  0.0216
    1WF      WF67681   3.151  17.421   1.003 -0.4989  0.0287  0.3153
    1WF      WF67682  25.405  28.374   0.243 -0.1863  0.2854 -0.1390
    1WF      WF67683  24.059   5.936   0.666  0.0186  0.1235  0.0774
    1WF      WF67684  13.076  24.421   7.676  0.0866 -0.2928 -0.0728
    1WF      WF67685  20.482  23.829   8.694 -0.0746 -0.1629  0.1043
    1WF      WF67686  23.328  24.742   0.555  0.1690  0.0450  0.1828
    1WF      WF67687  12.662  20.666   8.690  0.0327 -0.0325 -0.1877
    1WF      WF67688  28.983  19.292   8.985 -0.1492  0.2395 -0.1697
    1WF      WF67689   2.163  13.846   0.239  0.0757 -0.2065 -0.2603
    1WF      WF67690  10.095  10.164   1.832  0.0478  0.0370 -0.0468
    1WF      WF67691   6.879  26.848   1.397 -0.2500 -0.1755 -0.2104
    1WF      WF67692  25.734  15.954   7.786 -0.0010 -0.0358 -0.0581
    1WF      WF67693  11.139  12.714   7.112  0.1611  0.0465 -0.1084
    1WF      WF67694   3.233   5.753   2.668  0.0263  0.1699  0.1420
    1WF      WF67695   2.879   4.557   8.807  0.0416  0.2199 -0.0823
    1WF      WF67696   7.561  16.412   0.521 -0.1516 -0.0037  0.0067
    1WF      WF67697  18.784  13.330   1.207  0.2108 -0.1209 -0.1308
    1WF      WF67698  29.187  16.865   7.602  0.1179 -0.1994  0.0926
    1WF      WF67699  26.601  12.433   1.563  0.0144 -0.0203  0.0536
    1WF      WF67700  15.651  14.014   0.980  0.1227  0.0122 -0.2275
    1WF      WF67701  27.921   2.228   0.719  0.0815  0.0524 -0.0707
    1WF      WF67702   4.408   9.744   0.869  0.0241  0.0255  0.0695
    1WF      WF67703  29.417  20.120   7.176 -0.0882  0.0075 -0.2768
    1WF      WF67704   8.781  17.611   0.894  0.2371 -0.1029  0.1102
    1WF      WF67705   3.813  12.547   5.659  0.1978  0.0552 -0.0886
    1WF      WF67706   3.904  24.589   6.692  0.0888 -0.0223 -0.0377
    1WF      WF67707   6.130   5.137   1.490 -0.1405  0.0668  0.1420
    1WF      WF67708  20.983   8.262   8.017  0.2801 -0.0739  0.0461
    1WF      WF67709  27.362  16.402   0.253 -0.0194 -0.0770 -0.0914
    1WF      WF67710  20.626  24.001   7.150  0.1920 -0.1507 -0.2901
    1WF      WF67711  15.018  27.045   8.082 -0.1759 -0.1905 -0.1465
    1WF      WF67712  23.248  18.667   9.060  0.0187 -0.1098 -0.2499
    1WF      WF67713  10.333   4.193   8.832  0.2031 -0.1431  0.2326
    1WF      WF67714  27.702  21.062   3.200  0.3396  0.0915  0.2613
    1WF      WF67715  29.061  14.066   9.473  0.1711 -0.0351  0.0535
    1WF      WF67716  12.028   5.436   0.484 -0.1741  0.1626  0.0723
    1WF      WF67717  20.623  29.586   1.507 -0.1140  0.1804 -0.3061
    1WF      WF67718  25.644  15.510   8.024 -0.4643  0.0407 -0.2970
    1WF      WF67719  26.938  13.983   8.272  0.0430  0.3028  0.0112
    1WF      WF67720   1.110  10.734   2.687  0.3003 -0.0501  0.2289
    1WF      WF67721   3.945  24.273   1.613 -0.0626  0.1378 -0.0421
    1WF      WF67722  27.597  11.975   8.657 -0.2783 -0.0391  0.1535
    1WF      WF67723   4.413  15.400   8.858 -0.0618 -0.0508 -0.0972
    1WF      WF67724   1.163   6.338   0.452  0.0693 -0.0967  0.0308
    1WF      WF67725   8.166  24.336   6.895  0.2274 -0.1307  0.2691
    1WF      WF67726  17.661  21.760   7.362  0.1246 -0.0173 -0.2480
    1WF      WF67727  28.611  26.145   0.333 -0.1644 -0.0358  0.0164
    1WF      WF67728  28.375  23.651   0.759  0.1702 -0.0618 -0.0889
    1WF      WF67729  17.733  14.062   0.595 -0.1841 -0.1087 -0.1639
    1WF      WF67730  28.429   1.583   8.477 -0.2750 -0.2166  0.0314
    1WF      WF67731   3.683  29.694   0.375  0.1462  0.0449 -0.0163
    1WF      WF67732   2.374  25.963   0.737 -0.4434  0.0381 -0.0125
    1WF      WF67733  18.001  17.216   9.177 -0.0530  0.0314  0.3342
    1WF      WF67734  17.818   8.996   0.052  0.1369 -0.2152 -0.0073
    1WF      WF67735  27.475  26.647   2.985 -0.1666 -0.1549  0.0011
    1WF      WF67736  29.241  17.717   0.998  0.1751 -0.0196  0.1516
    1WF      WF67737  11.824  18.702   8.868 -0.3511  0.1455  0.0649
    1WF      WF67738  24.189  21.192   8.940  0.1263  0.1197  0.1081
    1WF      WF67739   0.617  15.081   9.128  0.1165  0.0408 -0.0749
    1WF      WF67740  14.646  23.373   7.057  0.0492 -0.1328 -0.1221
    1WF      WF67741   2.710  11.144   8.385 -0.3939 -0.0097 -0.0658
    1WF      WF67742   1.016  17.766   8.332 -0.2813  0.0008 -0.1065
    1WF      WF67743   3.677  12.054   8.888  0.0037 -0.2519 -0.0019
    1WF      WF67744  12.461  14.313   7.793 -0.2444 -0.1477  0.1451
    1WF      WF67745   3.512  24.739   0.747 -0.0241 -0.0753  0.3206
    1WF      WF67746  28.114  21.936   8.467  0.1447  0.1592 -0.0590
    1WF      WF67747  16.518  19.340   1.822  0.0133  0.2845  0.0230
    1WF      WF67748  13.095   9.998   8.182 -0.0700 -0.3975 -0.0324
    1WF      WF67749   3.782  25.105   7.057 -0.1704  0.0512  0.1112
    1WF      WF67750   5.906  15.123   1.072 -0.1171 -0.0493 -0.2116
    1WF      WF67751  18.837   1.321   1.542 -0.2687  0.1818 -0.1030
    1WF      WF67752   8.623  24.594   8.439 -0.2315 -0.0723  0.0902
    1WF      WF67753  28.539   9.334   8.411  0.3043  0.1901  0.0035
    1WF      WF67754   6.778   1.564   7.754 -0.0156  0.1908 -0.0509
    1WF      WF67755   4.053  18.148   7.140 -0.0484  0.0378  0.2807
    1WF      WF67756   4.283  10.037   0.476  0.0031  0.0251 -0.1078
    1WF      WF67757  13.908  28.527   1.608  0.3147  0.0763  0.2590
    1WF      WF67758  17.771  25.356   0.244 -0.0914  0.0032  0.1113
    1WF      WF67759  25.438  25.733   6.244 -0.0446 -0.2305  0.2696
    1WF      WF67760   0.801   6.657   0.291  0.1822  0.4626 -0.0016
    1WF      WF67761  22.716  11.302   7.974 -0.2783  0.1590  0.1442
    1WF      WF67762  24.533  22.064   8.631 -0.0181 -0.2934  0.0449
    1WF      WF67763   9.407  22.492   7.875  0.0866 -0.3136  0.2139
    1WF      WF67764  24.063  22.150   8.726  0.1094 -0.0673 -0.2915
    1WF      WF67765   4.437  14.248   0.842 -0.0189  0.2370 -0.1087
    1WF      WF67766  17.650  17.345   0.575  0.1487  0.0037 -0.0582
    1WF      WF67767  28.055  23.809   0.353 -0.0966  0.0296 -0.0721
    1WF      WF67768  22.212  15.433   0.970  0.0813 -0.1154 -0.3659
    1WF      WF67769  11.352   4.257   1.436 -0.3356 -0.0157 -0.1377
    1WF      WF67770  20.543  11.159   1.111 -0.0756  0.0531  0.3819
    1WF      WF67771  17.504  22.837   7.627  0.1428 -0.1860  0.0179
    1WF      WF67772  24.270   5.071   2.640 -0.2058  0.1502  0.1118
    1WF      WF67773   4.500  18.382   7.153  0.2624 -0.1858  0.1147
    1WF      WF67774   9.150   9.711   9.183  0.0590 -0.1523 -0.0355
    1WF      WF67775  12.638  17.749   0.362  0.0879 -0.0635 -0.0481
    1WF      WF67776   4.160  12.141   8.753 -0.2733 -0.0403 -0.2606
    1WF      WF67777   2.681  14.292   9.023  0.0478  0.1921 -0.4946
    1WF      WF67778  14.161  17.388   9.488 -0.0681 -0.1818 -0.1014
    1WF      WF67779   2.793   9.414   7.495 -0.0627  0.1387 -0.2201
    1WF      WF67780  13.373  11.446   0.496  0.0114 -0.1933  0.0106
    1WF      WF67781   7.789  12.390   9.026  0.4285 -0.0722 -0.2279
    1WF      WF67782  19.272  19.023   8.313  0.3427  0.0634 -0.1982
    1WF      WF67783   3.896  28.661   8.677 -0.1782  0.0818 -0.0128
    1WF      WF67784   6.271  19.534   7.839  0.3314  0.0391 -0.1371
    1WF      WF67785   4.368  11.114   0.942  0.0050  0.0512 -0.2247
    1WF      WF67786  26.526  24.577   0.550  0.0607  0.2257  0.2349
    1WF      WF67787   9.634  18.488   1.094  0.0385 -0.0985  0.0137
    1WF      WF67788  19.372   5.794   9.243 -0.0484 -0.1934  0.3279
    1WF      WF67789  29.299  22.600   8.750 -0.0058 -0.1152  0.0446
    1WF      WF67790  23.659   3.705   0.856  0.2028 -0.0342  0.2148
    1WF      WF67791   6.372   6.930   9.451  0.0122 -0.0721  0.1171
    1WF      WF67792   5.562   2.770   1.507  0.4822  0.5009 -0.3476
    1WF      WF67793   8.562  15.782   8.065 -0.0145 -0.0013 -0.0196
    1WF      WF67794  19.716  25.876   9.392  0.3759 -0.0470  0.3443
    1WF      WF67795  21.485  23.878   8.027 -0.1315 -0.4189  0.2174
    1WF      WF67796  25.431   7.799   1.558  0.0052 -0.2190 -0.2875
    1WF      WF67797  12.663   3.085   1.864  0.0456  0.0160 -0.2351
    1WF      WF67798   3.926  21.261   8.243 -0.0414 -0.1222  0.2713
    1WF      WF67799   8.167  23.629   9.113  0.1496  0.1112  0.1769
    1WF      WF67800  20.610  12.723   8.417  0.0089  0.1353  0.1462
    1WF      WF67801   3.796  29.579   9.460  0.2185  0.3965 -0.1321
    1WF      WF67802   5.249   1.594   8.436  0.0719  0.2423 -0.3230
    1WF      WF67803   2.578   2.826   8.797 -0.1836  0.0302  0.2047
    1WF      WF67804  27.796  21.909   8.050  0.2482 -0.1330 -0.0828
    1WF      WF67805  10.715   3.412   9.170  0.3428  0.1059 -0.1942
    1WF      WF67806   8.495  20.368   0.300 -0.1598 -0.1390 -0.1582
    1WF      WF67807  20.765  29.444   2.106  0.0582 -0.1955  0.2301
    1WF      WF67808  27.921  14.159   9.185  0.2230 -0.0562  0.0970
    1WF      WF67809   5.748  12.377   8.501  0.2982  0.0991 -0.0209
    1WF      WF67810   5.828  12.880   8.575  0.0844 -0.1498 -0.2990
    1WF      WF67811  12.624  26.539   0.987 -0.2404  0.0528  0.2497
    1WF      WF67812  22.275  18.427   7.652 -0.2559  0.0319 -0.1961
    1WF      WF67813   9.792   8.806   9.271 -0.1041 -0.2096  0.2282
    1WF      WF67814  11.469  29.382   1.551 -0.0211 -0.1150  0.2499
    1WF      WF67815  26.730   5.632   8.988  0.1061  0.0310  0.1364
    1WF      WF67816  20.496   2.583   1.684  0.2263  0.1079 -0.0280
    1WF      WF67817  18.865  26.588   7.862  0.0891  0.2431 -0.0762
    1WF      WF67818  19.787  19.929   8.844 -0.2323  0.0791 -0.0388
    1WF      WF67819  23.739   3.723   3.642 -0.0679  0.3187 -0.1908
    1WF      WF67820   6.301   1.919   0.432 -0.1279  0.3059  0.0337
    1WF      WF67821   3.243   1.973   8.506 -0.0145 -0.2096 -0.1791
    1WF      WF67822  26.992  26.712   6.517 -0.1157 -0.5391 -0.2966
    1WF      WF67823  28.011  26.541   7.644 -0.2714  0.0636 -0.1973
    1WF      WF67824   5.125  15.369   0.498 -0.1406  0.0680 -0.1367
    1WF      WF67825   8.325   1.249   8.388  0.2118 -0.1409 -0.1350
    1WF      WF67826   0.774  16.133   2.487  0.0159  0.2077  0.1866
    1WF      WF67827   8.090  11.297   7.881 -0.0191 -0.4539 -0.0620
    1WF      WF67828  29.175   2.088   0.719 -0.2133 -0.0820 -0.0592
    1WF      WF67829  26.846  28.100   0.559 -0.3021 -0.2608 -0.0552
    1WF      WF67830  15.661  25.021   7.996 -0.1531  0.0818  0.1097
    1WF      WF67831  21.241  13.582   2.485 -0.3475  0.3947 -0.5120
    1WF      WF67832  10.138  16.658   8.137 -0.3568  0.0595  0.0050
    1WF      WF67833  12.966  16.152   1.151  0.0390  0.2255 -0.2521
    1WF      WF67834  19.387  24.892   1.447 -0.2037  0.1317 -0.0737
    1WF      WF67835   1.958  16.180   1.178 -0.3029  0.2128 -0.3296
    1WF      WF67836  12.601  11.507   0.969 -0.0503 -0.1149  0.0702
    1WF      WF67837  12.768  17.650   9.337  0.0022 -0.0100  0.1242
    1WF      WF67838  26.921   3.011   9.048  0.1924 -0.1322  0.2331
    1WF      WF67839  22.361  26.359   0.181  0.0810 -0.3357  0.3582
    1WF      WF67840  29.334  11.553   0.545 -0.2184  0.0099  0.3066
    1WF      WF67841   9.469   9.544   8.842 -0.1404 -0.1095 -0.5405
    1WF      WF67842  11.890  18.775   1.134 -0.2269 -0.0496  0.0428
    1WF      WF67843   6.862  13.092   9.504 -0.1503 -0.1355  0.0712
    1WF      WF67844  19.657  15.099   1.191 -0.0926 -0.0778  0.0101
    1WF      WF67845  25.555   6.754   2.027 -0.0872  0.2251  0.3717
    1WF      WF67846   7.630  23.395   6.333 -0.1184  0.0324  0.1090
    1WF      WF67847  21.735   6.150   0.916 -0.3065 -0.0765  0.0017
    1WF      WF67848   8.903  16.088   0.640  0.0924 -0.1620  0.1260
    1WF      WF67849  22.566  28.822   7.540 -0.0204 -0.1894  0.1194
    1WF      WF67850  12.656  24.570   7.453  0.0506  0.4815 -0.1554
    1WF      WF67851   7.363   6.306   9.297  0.1274 -0.0567 -0.3203
    1WF      WF67852  21.952  24.800   1.941 -0.1529 -0.2491  0.0758
    1WF      WF67853  28.299   1.868   0.763  0.0809  0.2613  0.2798
    1WF      WF67854  24.306  22.477   8.415  0.2893 -0.1156 -0.0342
    1WF      WF67855   8.903   1.951   1.511  0.0890  0.1347 -0.2327
    1WF      WF67856  24.546  21.349   0.313  0.1642  0.1847  0.3010
    1WF      WF67857  13.115  11.723   0.830  0.2005 -0.3252  0.0103
    1WF      WF67858  27.015  23.541   0.925 -0.1741 -0.1548 -0.1885
    1WF      WF67859  26.552   2.670   0.293 -0.2110 -0.0274 -0.0251
    1WF      WF67860  12.775   8.981   8.418  0.1001  0.1919  0.2898
    1WF      WF67861  28.394  17.181   8.202  0.2001 -0.0251  0.2916
    1WF      WF67862  14.863   3.872   8.438  0.0626  0.1368  0.0104
    1WF      WF67863  27.489   5.102   1.386  0.3973  0.0952  0.4588
    1WF      WF67864   3.475  10.582   1.738  0.0081  0.1828  0.1798
    1WF      WF67865   4.084  20.091   8.500 -0.2230  0.1717 -0.2384
    1WF      WF67866  17.188  17.891   1.438 -0.2399  0.1199 -0.1815
    1WF      WF67867   9.463   4.775   7.308 -0.3495  0.1387  0.0248
    1WF      WF67868  25.127  24.396   0.707 -0.1298 -0.3448 -0.0469
    1WF      WF67869  15.147   2.227   2.395 -0.1744  0.2241 -0.0144
    1WF      WF67870   6.843  14.123   0.600  0.0541  0.1040 -0.2435
    1WF      WF67871  18.207  23.902   7.952 -0.1418  0.2256  0.3135
    1WF      WF67872   2.377   0.046   8.455  0.0623  0.0954 -0.0414
    1WF      WF67873  17.954  26.101   7.478 -0.0275  0.0093 -0.0414
    1WF      WF67874  29.535  18.023   8.332 -0.2657 -0.1324 -0.0338
    1WF      WF67875  12.892  11.898   1.198  0.0497 -0.0463 -0.0486
    1WF      WF67876  25.179   9.925   8.560 -0.0157 -0.3660  0.1364
    1WF      WF67877  15.591   0.005   1.762 -0.1359  0.1508  0.3004
    1WF      WF67878  26.060   5.366   3.030 -0.0689  0.1478  0.1006
    1WF      WF67879  12.119   5.046   1.147 -0.3651 -0.0283  0.2193
    1WF      WF67880  25.621   2.554   7.923 -0.0002 -0.2430 -0.1675
    1WF      WF67881   2.352  24.120   7.009 -0.1907  0.1690  0.1166
    1WF      WF67882   4.606  29.616   1.753 -0.2084 -0.0075 -0.2105
    1WF      WF67883  26.617  12.877   1.377 -0.1891  0.2327 -0.0184
    1WF      WF67884  22.082  17.509   7.862  0.0196 -0.0643  0.2961
    1WF      WF67885  19.485   4.052   2.299  0.0005 -0.0609 -0.1312
    1WF      WF67886  26.566  28.447   0.792  0.0125 -0.2612  0.0275
    1WF      WF67887  27.707  14.886   0.152 -0.1649 -0.1011  0.2124
    1WF      WF67888  26.763   8.062   3.194  0.1243 -0.3147  0.3234
    1WF      WF67889  23.685   2.103   2.172  0.1915  0.1500  0.2218
    1WF      WF67890   6.756   6.742   8.305  0.1971  0.2231 -0.2270
    1WF      WF67891  26.899   2.910   0.081  0.2599 -0.2840 -0.0082
    1WF      WF67892  10.660  11.830   1.647  0.3342 -0.1660  0.1787
    1WF      WF67893  10.667  15.343   1.006  0.0827 -0.2351 -0.0647
    1WF      WF67894   2.334  29.009   9.465 -0.0216  0.1008 -0.2605
    1WF      WF67895  28.164  13.942   1.170 -0.1903  0.1020  0.0794
    1WF      WF67896  26.380  22.788   0.702  0.1420  0.0259  0.0888
    1WF      WF67897   9.757  12.721   7.213  0.1014 -0.1805  0.0225
    1WF      WF67898   1.122  16.059   8.836  0.1730 -0.1522 -0.1917
    1WF      WF67899   5.014  22.090   0.687 -0.2811 -0.0016 -0.2875
    1WF      WF67900  25.721  20.182   7.375 -0.2380  0.0475  0.0159
    1WF      WF67901  21.054  25.124   0.495 -0.1215 -0.1179 -0.2263
    1WF      WF67902  27.416  11.924   8.127  0.0279  0.1004  0.2051
    1WF      WF67903  25.156   4.284   0.241 -0.0246  0.3312 -0.4157
    1WF      WF67904   6.450  28.669   2.370  0.0010 -0.0223  0.1394
    1WF      WF67905  24.259  21.700   8.990  0.1967  0.0575 -0.0325
    1WF      WF67906  17.755  26.872   0.964  0.0497 -0.0390  0.1088
    1WF      WF67907  18.783  13.892   8.160 -0.1715  0.0797 -0.0495
    1WF      WF67908  28.057  10.510   1.537 -0.0235  0.0138  0.0991
    1WF      WF67909   6.534   7.932   7.614 -0.3867 -0.0947  0.0995
    1WF      WF67910  24.306  15.361   8.849 -0.0279 -0.2749 -0.0146
    1WF      WF67911   4.244  14.009   0.368 -0.0822  0.0676  0.1788
    1WF      WF67912  11.712  25.042   7.355 -0.2977  0.0819 -0.1536
    1WF      WF67913  16.626  22.032   1.651 -0.4624 -0.0395 -0.0723
    1WF      WF67914  12.483  27.309   7.518 -0.2277 -0.0935  0.0983
    1WF      WF67915   0.521   7.862   7.070 -0.2069  0.0388 -0.2099
    1WF      WF67916   8.221  11.913   1.563  0.1925 -0.0426  0.2127
    1WF      WF67917  21.317  28.287   0.329 -0.0682  0.0553  0.2771
    1WF      WF67918   0.868  17.648   7.202 -0.1415  0.1081  0.0174
    1WF      WF67919  16.025  11.100   8.860 -0.0814  0.2587  0.2929
    1WF      WF67920  18.810  24.028   9.197  0.1516 -0.0683 -0.2290
    1WF      WF67921  17.497  22.414   8.338  0.1839  0.0820 -0.0557
    1WF      WF67922  26.390   7.379   7.843 -0.2974 -0.3336  0.0587
    1WF      WF67923   3.761  12.428   1.821 -0.1411 -0.0531  0.0028
    1WF      WF67924  24.307  28.190   1.144 -0.0771 -0.0271 -0.2120
    1WF      WF67925   5.602  18.362   0.770 -0.2632 -0.0737 -0.0815
    1WF      WF67926   4.376   7.408   1.996  0.3299  0.0108  0.1392
    1WF      WF67927   1.742   5.538   8.810  0.1867 -0.1047  0.1356
    1WF      WF67928  27.038  25.750   2.306 -0.3895  0.0575 -0.0913
    1WF      WF67929  23.995  12.040   7.734  0.1291  0.2413  0.5472
    1WF      WF67930  28.997  21.002   6.420 -0.0918  0.1050 -0.1254
    1WF      WF67931  26.610  24.877   0.982  0.3769  0.2122 -0.0130
    1WF      WF67932  12.807  16.068   9.140  0.0913  0.0083  0.0725
    1WF      WF67933  13.167   3.559   1.796 -0.2409  0.0605  0.0001
    1WF      WF67934  29.291  22.205   8.441 -0.3579 -0.0016 -0.0627
    1WF      WF67935  17.325   1.607   1.313 -0.2162 -0.2729 -0.1481
    1WF      WF67936   1.332  21.294   8.868  0.3221  0.1439  0.0764
    1WF      WF67937   1.837   7.537   6.728  0.0437 -0.0853  0.1464
    1WF      WF67938  18.137  15.989   0.420  0.2632  0.0337  0.2531
    1WF      WF67939  21.962  18.334   8.133 -0.3462  0.0158  0.1251
    1WF      WF67940  15.411  13.511   8.671 -0.0253 -0.0133  0.0250
    1WF      WF67941  13.791  18.296   8.249 -0.5051  0.1795  0.1363
    1WF      WF67942  12.140   1.278   0.444  0.0415  0.2302  0.2122
    1WF      WF67943   9.193  22.468   0.083  0.0094 -0.1813 -0.5590
    1WF      WF67944  26.666   3.434   8.667  0.0370  0.1139  0.1135
    1WF      WF67945   7.007   5.888   0.537 -0.1579 -0.2268 -0.2280
    1WF      WF67946  11.597   1.738   1.306 -0.2350 -0.0382 -0.1246
    1WF      WF67947  14.650  26.951   0.369 -0.1628 -0.0547 -0.3634
    1WF      WF67948   1.180  29.448   7.262  0.1833 -0.2559 -0.0782
    1WF      WF67949  28.616   9.652   0.933 -0.1068 -0.2417  0.2418
    1WF      WF67950   0.815  21.552   1.583 -0.2258 -0.2747 -0.1725
    1WF      WF67951  21.325  17.737   0.886  0.1700 -0.2611  0.1532
    1WF      WF67952  15.106  24.366   8.434  0.0053 -0.3392 -0.3227
    1WF      WF67953  28.825   7.823   0.392 -0.3862 -0.2380  0.2804
    1WF      WF67954   1.516  22.782   8.862  0.2201  0.0358 -0.0224
    1WF      WF67955   0.590  18.264   9.289 -0.2933 -0.1517 -0.0305
    1WF      WF67956  16.446  19.014   0.570 -0.1987  0.0003  0.0967
    1WF      WF67957  11.559  13.185   9.096 -0.1200  0.1785  0.1360
    1WF      WF67958   5.117  24.252   0.470 -0.0460 -0.0383 -0.2292
    1WF      WF67959  18.391  20.451   8.522 -0.2214 -0.1284 -0.1640
    1WF      WF67960   1.604  11.787   0.021  0.1779  0.1658 -0.0772
    1WF      WF67961  17.263  13.870   0.761 -0.5754  0.1172 -0.1891
    1WF      WF67962  23.082  23.088   9.094 -0.2592  0.0816  0.0570
    1WF      WF67963  19.293  22.506   8.489  0.0436 -0.0164  0.0395
    1WF      WF67964  24.486   1.918   8.526 -0.0545  0.1554 -0.1300
    1WF      WF67965  12.656  26.975   0.753  0.3900 -0.1935 -0.2711
    1WF      WF67966   1.113  18.338   9.128 -0.1312  0.2352  0.1290
    1WF      WF67967   9.617  27.619   7.592 -0.2305  0.1822  0.0518
    1WF      WF67968  28.007  24.184   9.071 -0.2185  0.1448  0.0847
    1WF      WF67969  24.517   8.086   0.274 -0.1125  0.1024  0.0057
    1WF      WF67970  20.382   0.949   1.628  0.1383  0.1679  0.1115
    1WF      WF67971  11.618   8.226   0.612  0.1849  0.0901  0.1405
    1WF      WF67972  25.136   9.084   7.144  0.2106  0.1407  0.0953
    1WF      WF67973   0.987  19.617   8.750 -0.0587  0.2261 -0.0292
    1WF      WF67974   0.526  22.619   0.078  0.0364  0.0304  0.1464
    1WF      WF67975   0.099   3.853   1.586  0.1028  0.4108 -0.2231
    1WF      WF67976  23.506  25.566   8.233 -0.2985  0.1010 -0.0894
    1WF      WF67977  24.944  28.326   8.630 -0.1129  0.1251 -0.2036
    1WF      WF67978  13.194   7.062   0.297  0.0067 -0.0878 -0.2490
    1WF      WF67979  23.900  19.341   2.926 -0.0001 -0.1567  0.0798
    1WF      WF67980   9.090   0.314   7.281  0.3355  0.0042  0.0317
    1WF      WF67981  22.186  22.260   9.476 -0.1971 -0.2990 -0.0161
    1WF      WF67982   7.585  27.199   8.602  0.1474  0.0394 -0.0271
    1WF      WF67983  19.036   1.437   1.057  0.1388  0.1422 -0.3214
    1WF      WF67984   7.871  27.970   7.237  0.0890  0.1073  0.0750
    1WF      WF67985  26.059  11.220   0.443  0.0683  0.2561  0.0572
    1WF      WF67986  27.436  12.355   8.358  0.2925  0.1850  0.0073
    1WF      WF67987   3.267  22.691   0.399  0.0831  0.1674  0.3428
    1WF      WF67988  16.260   8.439   0.968  0.1768  0.0505 -0.0666
    1WF      WF67989  16.359   3.541   1.207 -0.1729 -0.2714 -0.1559
    1WF      WF67990  27.512  21.133   9.204 -0.4080  0.0488 -0.1230
    1WF      WF67991  18.444  12.882   1.244  0.2420 -0.0752 -0.0890
    1WF      WF67992  11.975  29.573   7.142  0.1592  0.3182 -0.1475
    1WF      WF67993   9.369  28.386   7.788  0.3298 -0.3529  0.1706
    1WF      WF67994  14.390   7.894   9.362  0.1391  0.1032 -0.2266
    1WF      WF67995   2.874  11.047   7.889  0.0140  0.0501 -0.2730
    1WF      WF67996  16.506  28.882   1.264  0.0508 -0.1522 -0.0669
    1WF      WF67997   2.762  26.298   1.372  0.2956  0.1519  0.0272
    1WF      WF67998   6.598   3.291   0.668  0.1830  0.1854 -0.0975
    1WF      WF67999  21.089  21.547   6.842  0.0795  0.0600 -0.1581
    1WF      WF68000  15.878  14.334   8.321  0.0215 -0.0078  0.2090
    1WF      WF68001   9.101   4.769   6.865  0.0486  0.2422  0.0142
    1WF      WF68002  23.439  18.638   8.617  0.2322  0.2663  0.2685
    1WF      WF68003  20.285   7.786   7.309 -0.1452  0.1948  0.1050
    1WF      WF68004  20.394  13.911   9.018  0.2372 -0.1029 -0.0750
    1WF      WF68005  26.036  13.361   8.795 -0.1339 -0.4017 -0.0406
    1WF      WF68006  11.524   7.642   9.074  0.2129  0.0408 -0.0316
    1WF      WF68007  29.730  29.217   6.951 -0.0584  0.0178 -0.0900
    1WF      WF68008  19.312  19.748   7.403 -0.0722 -0.1266 -0.1708
    1WF      WF68009  20.643  23.819   5.594  0.1658  0.2138 -0.2705
    1WF      WF68010   1.051   2.474   1.743  0.0617 -0.0151 -0.0059
    1WF      WF68011   4.221   1.706   8.128  0.0537  0.0521  0.0672
    1WF      WF68012   8.822  24.092   2.140 -0.0473  0.0006 -0.0723
    1WF      WF68013  18.594  24.306   0.378  0.0673 -0.1154  0.1991
    1WF      WF68014  21.720   0.856   1.784 -0.0784 -0.0649  0.1305
    1WF      WF68015   7.490  27.709   7.437 -0.0862  0.1919  0.1036
    1WF      WF68016   4.195   2.163   2.962 -0.0936 -0.2454  0.1094
    1WF      WF68017  28.120  27.570   5.804 -0.0611  0.0535 -0.1224
    1WF      WF68018  16.375  23.549   0.943 -0.2735 -0.0790  0.0605
    1WF      WF68019  12.622   7.049   3.343 -0.1363 -0.1628 -0.0511
    1WF      WF68020  14.294  18.161   8.102  0.1652  0.0665  0.0439
    1WF      WF68021  13.941  21.010   0.063 -0.1242  0.0159  0.5096
    1WF      WF68022  20.872   2.000   9.346  0.1350 -0.0403 -0.2311
    1WF      WF68023  21.224   8.367   7.588  0.1671  0.0153  0.3187
    1WF      WF68024   4.182  17.095   9.425  0.2153  0.0030 -0.1284
    1WF      WF68025  22.654  19.197   7.752 -0.2081 -0.0477 -0.1500
    1WF      WF68026  17.705   9.375   9.269 -0.1402 -0.2038  0.1637
    1WF      WF68027   4.658   9.199   3.193 -0.0527 -0.2011 -0.0654
    1WF      WF68028  29.030  11.017   7.550 -0.0361  0.4077  0.5234
    1WF      WF68029  22.133  13.314   0.944  0.2377  0.2063 -0.2970
    1WF      WF68030  10.602  24.878   8.359  0.2396 -0.2096 -0.0549
    1WF      WF68031  27.722   5.668   9.413 -0.0673  0.0915  0.1988
    1WF      WF68032   2.891  23.095   1.363 -0.2345 -0.0819 -0.0887
    1WF      WF68033   6.814  18.640   0.491 -0.1953 -0.0158 -0.1018
    1WF      WF68034  10.452  23.616   7.812 -0.2362  0.3156 -0.1797
    1WF      WF68035  14.467   3.238   9.472  0.1613  0.0376  0.0944
    1WF      WF68036   5.381   6.948   9.277  0.1623 -0.0901  0.0709
    1WF      WF68037   4.650   5.521   9.303 -0.1028  0.0379  0.2350
    1WF      WF68038  27.048   8.783   2.963 -0.1500 -0.0317  0.2000
    1WF      WF68039  27.325  11.200   0.474  0.2811  0.1315 -0.0752
    1WF      WF68040  28.083   7.265   1.497  0.2439 -0.1143 -0.0130
    1WF      WF68041  27.952   8.480   0.297 -0.1146  0.0608 -0.0867
    1WF      WF68042   6.544   9.930   8.680  0.0661  0.1267  0.4132
    1WF      WF68043   3.141   9.085   8.423 -0.1669 -0.2844 -0.0223
    1WF      WF68044  28.602  20.967   6.816 -0.1172 -0.0414  0.1535
    1WF      WF68045  28.802  23.084   8.496  0.1934  0.2116  0.0085
    1WF      WF68046  25.109  24.796   0.334 -0.1147 -0.0715 -0.4586
    1WF      WF68047  29.139   6.174   0.688  0.1495 -0.0704 -0.0156
    1WF      WF68048  17.709   2.565   7.918 -0.0070  0.1909  0.1525
    1WF      WF68049  23.534  25.376   9.282  0.0184  0.1982  0.3847
    1WF      WF68050  13.751  19.928   7.748  0.0513 -0.1709  0.1943
    1WF      WF68051   9.911  29.308   0.696  0.2534  0.1179 -0.3167
    1WF      WF68052  25.079   2.644   0.675 -0.0015  0.2310  0.0663
    1WF      WF68053  22.737  21.506   1.516  0.0353  0.3381 -0.1070
    1WF      WF68054  14.993  22.188   6.624 -0.4259  0.1221  0.1415
    1WF      WF68055  11.457   4.605   2.157 -0.1530 -0.0315  0.2405
    1WF      WF68056   7.841  29.104   0.459  0.0751 -0.1096  0.0360
    1WF      WF68057   8.398  23.909   7.634 -0.1611 -0.0334  0.4267
    1WF      WF68058  15.215  26.364   1.311  0.3703 -0.0562  0.2185
    1WF      WF68059   1.644  18.442   1.789  0.1358  0.2006 -0.0497
    1WF      WF68060   6.445   5.019   0.312 -0.0049 -0.2536  0.3403
    1WF      WF68061  16.398  29.061   1.704  0.1938 -0.2023 -0.2030
    1WF      WF68062  17.410   5.705   9.078  0.2885 -0.0353  0.1822
    1WF      WF68063  15.299   9.225   1.915 -0.3651 -0.0748 -0.1492
    1WF      WF68064  12.835  11.347   2.240  0.2351  0.0898 -0.0257
    1WF      WF68065   1.050  26.813   9.326  0.3818 -0.1741 -0.0105
    1WF      WF68066  22.341  13.457   1.372  0.3595 -0.4401 -0.1197
    1WF      WF68067   1.769  25.783   9.265 -0.2118  0.0566  0.1443
    1WF      WF68068  26.202  25.411   0.238  0.1999 -0.2216  0.0296
    1WF      WF68069   3.500   9.321   8.174 -0.0425  0.1685 -0.0457
    1WF      WF68070  12.293  26.645   7.599  0.0279  0.2102 -0.0542
    1WF      WF68071   0.803  24.158   0.696 -0.2272 -0.0356  0.0631
    1WF      WF68072  24.126  16.328   0.191 -0.0801  0.2750 -0.5268
    1WF      WF68073   8.711  24.556   1.217 -0.4653 -0.0385  0.0754
    1WF      WF68074  21.615  24.378   7.897  0.1756  0.0620 -0.0469
    1WF      WF68075  24.617   7.620   9.499  0.0103  0.2502 -0.2264
    1WF      WF68076  20.531  17.072   7.307 -0.4275 -0.1883  0.0764
    1WF      WF68077  23.960  16.276   0.712 -0.0598 -0.2975 -0.1035
    1WF      WF68078   3.717  28.192   8.721  0.0549 -0.2879  0.1492
    1WF      WF68079  15.279   9.894   0.117  0.2240 -0.2487 -0.1175
    1WF      WF68080   0.554  19.788   8.566  0.0119 -0.0466  0.0079
    1WF      WF68081  19.756  19.784   0.579  0.0653  0.0896 -0.2077
    1WF      WF68082  27.207   5.179   1.890 -0.1612  0.0860 -0.0182
    1WF      WF68083  13.085   5.451   2.313 -0.0900  0.1910  0.1863
    1WF      WF68084  12.501  18.149   5.603  0.0892  0.4499  0.0016
    1WF      WF68085   8.609  11.697   1.814 -0.2469  0.0650  0.0395
    1WF      WF68086   0.511   9.278   5.776 -0.0095 -0.2278 -0.3274
    1WF      WF68087  18.146   8.208   1.895 -0.1351 -0.0136 -0.3455
    1WF      WF68088   6.799  11.469   1.695 -0.2235 -0.0238  0.1982
    1WF      WF68089  25.253  19.310   7.387  0.0113  0.0477 -0.1330
    1WF      WF68090  14.928  16.749   8.197  0.0108  0.0910  0.1079
    1WF      WF68091   4.826  10.654   9.016  0.0945 -0.4244 -0.0625
    1WF      WF68092  26.003   6.501   9.172  0.0857 -0.3639 -0.1287
    1WF      WF68093   7.094  11.682   9.048  0.2291 -0.1322 -0.0139
    1WF      WF68094  12.610  21.778   5.980 -0.2275 -0.1750 -0.2081
    1WF      WF68095   4.757  29.084   0.301  0.1727 -0.3162  0.3023
    1WF      WF68096  27.668  17.909   1.533  0.0917 -0.2406 -0.0036
    1WF      WF68097  25.283   4.107   9.249  0.1240  0.0994 -0.1398
    1WF      WF68098  11.905  16.843   7.986  0.2121  0.0490 -0.2163
    1WF      WF68099  29.446  24.902   2.141 -0.2048 -0.0196 -0.1383
    1WF      WF68100  17.497  23.477   5.425  0.1786  0.0394  0.1333
    1WF      WF68101  15.071   3.914   0.910 -0.0637 -0.1226  0.1748
    1WF      WF68102   8.585  15.570   8.987  0.1057  0.2573 -0.3230
    1WF      WF68103  10.387   9.777   1.470 -0.1857 -0.2671  0.2130
    1WF      WF68104   2.671  29.353   0.030  0.3104  0.3219  0.2469
    1WF      WF68105  18.937  29.338   8.260 -0.1371  0.0607  0.1921
    1WF      WF68106   3.246  17.446   0.443  0.2212 -0.2227  0.1224
    1WF      WF68107   4.248   4.955   9.471  0.0260  0.2588 -0.2322
    1WF      WF68108   6.558  19.826   2.499 -0.2128 -0.0353 -0.1367
    1WF      WF68109  13.828   6.370   0.616 -0.1416  0.2331  0.2360
    1WF      WF68110   3.918   7.605   7.821 -0.3866  0.3675 -0.0543
    1WF      WF68111  19.409   5.753   1.904 -0.1559 -0.1348 -0.1643
    1WF      WF68112  21.755  17.023   8.618 -0.1644 -0.2332  0.2727
    1WF      WF68113  25.088  23.958   0.908 -0.2187  0.1077  0.2262
    1WF      WF68114  14.193  19.449   0.220 -0.1517  0.2515 -0.0345
    1WF      WF68115   0.802   1.707   0.971  0.1595  0.0876  0.2254
    1WF      WF68116   1.838  29.122   8.125  0.0331  0.0283  0.2340
    1WF      WF68117   5.833  11.334   1.622  0.1874  0.0847  0.0362
    1WF      WF68118   3.418  27.544   6.006  0.1101  0.2556  0.0603
    1WF      WF68119  17.409  14.190   8.668  0.1080 -0.1790 -0.1463
    1WF      WF68120  18.584   9.949   0.275 -0.0784  0.1511  0.3225
    1WF      WF68121  29.598  14.265   0.138  0.4414 -0.2780  0.3217
    1WF      WF68122  11.927  11.236   0.394  0.0658 -0.4655 -0.0298
    1WF      WF68123   9.512  26.679   6.847  0.3024 -0.1365 -0.2516
    1WF      WF68124  21.317   4.443   8.973  0.4398 -0.3089 -0.2094
    1WF      WF68125  13.511  14.392   0.382  0.3082 -0.2604  0.1108
    1WF      WF68126   9.480  18.920   0.828  0.1095 -0.2058 -0.1242
    1WF      WF68127  20.830  21.529   6.379  0.0503 -0.2004 -0.1959
    1WF      WF68128   1.868   4.705   3.149 -0.1607  0.0716  0.0271
    1WF      WF68129  20.933  24.949   0.930 -0.2146  0.0095 -0.2552
    1WF      WF68130  24.238  22.262   0.881  0.0804  0.1612 -0.0890
    1WF      WF68131   5.451   3.711   9.349 -0.2687  0.0074  0.1548
    1WF      WF68132  17.664  16.267   0.715  0.0502  0.1559  0.1921
    1WF      WF68133   6.191  10.018   8.212 -0.0203  0.0160  0.4102
    1WF      WF68134  21.764  16.682   9.072 -0.2524  0.0045 -0.0811
    1WF      WF68135   3.571   9.524   0.388 -0.1055 -0.0251  0.1056
    1WF      WF68136  29.775   5.316   0.153 -0.1776 -0.3219 -0.0973
    1WF      WF68137  26.368   9.490   0.580 -0.1093 -0.3363  0.0654
    1WF      WF68138  15.400   2.311   0.199 -0.0807  0.1051  0.0064
    1WF      WF68139   0.598  22.020   8.797  0.1156  0.0058  0.2823
    1WF      WF68140   5.852   5.986   2.474 -0.1923  0.1446  0.3669
    1WF      WF68141  18.566   4.487   0.751 -0.0790  0.3036 -0.0468
    1WF      WF68142   5.201   4.079   0.043  0.0930 -0.0715 -0.1378
    1WF      WF68143  28.814   6.270   8.806  0.2134  0.2362  0.1363
    1WF      WF68144   6.871   3.375   0.212 -0.0652 -0.2852 -0.1954
    1WF      WF68145   6.502   4.785   9.398 -0.0520 -0.1241 -0.1990
    1WF      WF68146   0.808  28.736   8.545  0.0580  0.2109  0.5046
    1WF      WF68147  12.911  26.763   8.628 -0.0816  0.3535  0.1419
    1WF      WF68148  13.782  13.056   2.007  0.5409 -0.0688 -0.0601
    1WF      WF68149  11.803   6.686   9.009  0.1903  0.1710 -0.2466
    1WF      WF68150   5.870  26.584   9.002 -0.2974  0.0622 -0.2745
    1WF      WF68151  27.003  13.787   6.836  0.0096 -0.0061 -0.2115
    1WF      WF68152   7.910  20.262   1.955 -0.2750  0.0716  0.0205
    1WF      WF68153  29.776   7.323   1.633  0.0298 -0.0697 -0.2327
    1WF      WF68154   5.949   7.223   0.108  0.0815 -0.1837 -0.4849
    1WF      WF68155  16.820  26.594   6.658 -0.0822 -0.2397  0.2151
    1WF      WF68156  13.101  17.965   0.183  0.1490  0.1218 -0.0423
    1WF      WF68157   0.240  28.730   8.539  0.2339 -0.2749 -0.0921
    1WF      WF68158   0.948  18.260   0.098 -0.0182 -0.2460  0.1909
    1WF      WF68159  26.324  22.299   0.906  0.2498 -0.2282  0.0598
    1WF      WF68160  25.505   8.477   1.807 -0.3256 -0.3479 -0.1392
    1WF      WF68161  23.908  22.918   2.174  0.3004  0.0263 -0.0120
    1WF      WF68162  11.626   7.893   8.685  0.1705  0.2600  0.0602
    1WF      WF68163   5.267  10.009   6.649 -0.0594  0.1212  0.4686
    1WF      WF68164  16.373  20.540   0.250 -0.3072 -0.0295  0.0004
    1WF      WF68165  21.903   6.615   1.137 -0.1861  0.2451  0.3326
    1WF      WF68166   7.203   9.606   0.119  0.3612  0.0643 -0.1924
    1WF      WF68167  24.782  15.092   8.687 -0.0490  0.2209  0.0660
    1WF      WF68168  26.396   2.110   8.340  0.1350  0.2351 -0.1318
    1WF      WF68169  21.405   4.945   9.463 -0.0225 -0.1140  0.0538
    1WF      WF68170  12.586  23.464   8.760 -0.0152  0.1023 -0.0520
    1WF      WF68171   4.603  27.797   1.213 -0.2102  0.2312 -0.1066
    1WF      WF68172  26.523   2.224   7.846 -0.3089  0.1657  0.0024
    1WF      WF68173   2.957  15.529   7.539 -0.2485  0.0911  0.1788
    1WF      WF68174  24.396  16.733   0.991 -0.1670  0.0399 -0.0571
    1WF      WF68175  11.053  10.213   8.666  0.0936  0.1751  0.1106
    1WF      WF68176  17.611  21.114   1.052  0.2780  0.0005  0.0979
    1WF      WF68177  21.008  25.612   8.346 -0.4072  0.4570 -0.1643
    1WF      WF68178  20.273  16.351   8.807  0.3138  0.0043 -0.1386
    1WF      WF68179  12.737  13.589   7.659  0.0304  0.2559 -0.1063
    1WF      WF68180   5.892   1.616   0.394 -0.1177 -0.0890 -0.0347
    1WF      WF68181  11.160   0.222   8.514 -0.0480  0.5072 -0.2751
    1WF      WF68182   8.577  28.731   1.309 -0.0314 -0.3226  0.1427
    1WF      WF68183  27.506  11.473   8.496 -0.1248 -0.1370  0.1739
    1WF      WF68184  26.850   9.272   2.958  0.1136 -0.0809  0.1282
    1WF      WF68185   8.291   0.902   8.723 -0.2393  0.4503 -0.1061
    1WF      WF68186   0.371  15.661   0.926 -0.2028  0.2220  0.0115
    1WF      WF68187  23.915  14.577   8.254  0.1148 -0.0410  0.1943
    1WF      WF68188  13.475  20.771   9.521  0.1988  0.0016 -0.1688
    1WF      WF68189  23.668  17.411   0.905 -0.0233  0.1792 -0.0154
    1WF      WF68190   8.838  25.513   7.159 -0.0114 -0.0535  0.1841
    1WF      WF68191  19.835  27.916   7.916  0.0086 -0.0076  0.0523
    1WF      WF68192  25.317   2.441   0.291 -0.1278  0.6039  0.0496
    1WF      WF68193  25.397  19.731   7.179 -0.1666 -0.0694  0.0781
    1WF      WF68194   3.268  20.805   0.834 -0.1258 -0.1239 -0.1792
    1WF      WF68195   8.846  11.359   8.285  0.1996 -0.2611 -0.1027
    1WF      WF68196  20.217   7.915   1.475  0.1952  0.1229 -0.0357
    1WF      WF68197  14.658  16.044   8.425  0.0736 -0.0663  0.3752
    1WF      WF68198   8.177  16.528   8.225  0.3827 -0.1054 -0.0351
    1WF      WF68199  16.380  10.197   8.550  0.0310  0.1644  0.1316
    1WF      WF68200  24.489  25.953   7.902 -0.0514  0.2529  0.3103
    1WF      WF68201   4.977  29.287   1.675  0.3097  0.0103  0.4255
    1WF      WF68202   0.163  11.304   8.870 -0.1316 -0.2820 -0.1374
    1WF      WF68203   7.971  15.824   6.570  0.2404 -0.1467 -0.0094
    1WF      WF68204  13.464   9.331   1.658 -0.1276 -0.1043 -0.0888
    1WF      WF68205  15.093  15.782   0.915 -0.2060 -0.3893  0.1641
    1WF      WF68206  22.224   5.979   2.987 -0.1306 -0.0532 -0.5122
    1WF      WF68207   3.624   3.198   9.467 -0.0167  0.2485  0.1298
    1WF      WF68208  24.723  26.556   2.134  0.1330  0.0279 -0.3581
    1WF      WF68209  16.546   8.896   1.134 -0.0741 -0.0794  0.1673
    1WF      WF68210  17.640  11.527   2.675  0.2073  0.0221 -0.2181
    1WF      WF68211  25.487   9.847   9.005 -0.1666  0.0216 -0.0116
    1WF      WF68212   0.690  18.020   1.256 -0.2796 -0.0742 -0.1100
    1WF      WF68213  17.981  20.490   0.009  0.1463 -0.1192 -0.3227
    1WF      WF68214   8.066  22.508   5.652 -0.1102  0.0615  0.0149
    1WF      WF68215   0.682  27.809   2.130 -0.0332  0.5271  0.0398
    1WF      WF68216   5.501  22.734   8.561  0.1814 -0.3003 -0.1541
    1WF      WF68217  20.715  28.316   0.571 -0.2239  0.1150  0.2630
    1WF      WF68218  25.491  21.529   0.304  0.0924  0.1811 -0.2450
    1WF      WF68219   7.960  24.625   6.530  0.0168  0.2655 -0.1518
    1WF      WF68220  15.553  20.432   8.060 -0.2565 -0.3646 -0.0225
    1WF      WF68221  24.197  25.077   1.605 -0.2408  0.0831 -0.1857
    1WF      WF68222  27.399  15.158   9.469 -0.1996 -0.1446 -0.0002
    1WF      WF68223   6.495  26.016   8.233 -0.0500 -0.0085  0.2471
    1WF      WF68224   6.862  27.743   8.394 -0.1437 -0.2270 -0.2473
    1WF      WF68225   8.519   7.355   9.519 -0.0796  0.1248  0.0581
    1WF      WF68226   7.312   6.567   7.782 -0.0116  0.3346  0.2099
    1WF      WF68227  16.940   5.630   0.502 -0.0679 -0.0756  0.1124
    1WF      WF68228  10.063  16.763   1.000 -0.0013  0.4669  0.2519
    1WF      WF68229  23.170   3.595   2.764  0.2224  0.2680 -0.2078
    1WF      WF68230  15.329   6.401   8.100  0.0849  0.1972 -0.0169
    1WF      WF68231  19.071   8.190   1.118 -0.1028 -0.0358 -0.0821
    1WF      WF68232  14.484  11.206   0.565  0.0355 -0.2613 -0.0110
    1WF      WF68233  15.591  24.676   9.396  0.0652 -0.0928  0.3507
    1WF      WF68234  14.388  14.051   7.555  0.1953 -0.1417 -0.0194
    1WF      WF68235   2.401   2.410   8.497  0.0775 -0.2364  0.0299
    1WF      WF68236  11.024  19.556   7.862 -0.0796 -0.0947 -0.2657
    1WF      WF68237  20.267  20.058   8.812  0.0787 -0.0690 -0.0417
    1WF      WF68238  16.943   3.023   0.546  0.0802  0.2356  0.2669
    1WF      WF68239  23.586  25.597   8.766 -0.1822 -0.0575  0.0082
    1WF      WF68240  29.037  16.721   9.327  0.0080 -0.0102 -0.0652
    1WF      WF68241  18.745  21.706   8.740 -0.0211  0.2014  0.1382
    1WF      WF68242  11.441  10.575   7.016 -0.1658  0.4039 -0.3257
    1WF      WF68243  28.333  13.719   3.478  0.0226 -0.1969  0.1531
    1WF      WF68244  22.122   3.562   8.315 -0.0139  0.0162 -0.4198
    1WF      WF68245  12.419  24.719   1.419  0.0128 -0.2484 -0.2172
    1WF      WF68246  24.161  25.498   1.393  0.4796  0.1457 -0.1192
    1WF      WF68247  22.465  14.046   7.957  0.1152 -0.1096  0.1052
    1WF      WF68248  15.921  22.808   7.869 -0.1326  0.1444 -0.0967
    1WF      WF68249  12.998  22.299   6.469 -0.0545 -0.1676  0.1519
    1WF      WF68250  28.189   5.864   0.144 -0.0641  0.0690 -0.0398
    1WF      WF68251  11.098   4.571   1.774 -0.0133  0.0633 -0.2604
    1WF      WF68252   4.467  19.712   8.418 -0.0047 -0.4829  0.2499
    1WF      WF68253  27.279   5.476   9.171  0.1685 -0.0548  0.3077
    1WF      WF68254  29.792   1.159   1.887 -0.0643  0.0275 -0.0304
    1WF      WF68255  28.186  12.697   1.894  0.1914 -0.1315 -0.2081
    1WF      WF68256  13.316  10.417   8.326  0.0479  0.0394 -0.2561
    1WF      WF68257   0.345  24.005   0.774  0.0176 -0.1052 -0.1913
    1WF      WF68258  25.855  19.163   1.051 -0.0269 -0.2376 -0.1588
    1WF      WF68259  17.821   1.817   3.179  0.0719  0.2277 -0.1356
    1WF      WF68260  29.138  21.053   1.983  0.1043 -0.0058  0.2186
    1WF      WF68261  21.486  19.502   0.080  0.0659 -0.1243 -0.1257
    1WF      WF68262  29.273  12.879   7.324  0.0378 -0.2654  0.0656
    1WF      WF68263   9.461   8.819   1.341 -0.0858 -0.1694  0.1932
    1WF      WF68264  12.928   7.203   0.777 -0.0581 -0.1180  0.1833
    1WF      WF68265   9.525  22.830   7.496 -0.3830  0.0262 -0.1227
    1WF      WF68266  29.219   2.613   0.210  0.1967  0.3295 -0.2118
    1WF      WF68267  27.800  28.614   0.080 -0.3130 -0.1608 -0.1832
    1WF      WF68268  27.265  22.770   8.217  0.0122  0.1041 -0.1307
    1WF      WF68269  12.493  26.710   8.335 -0.0648 -0.1025 -0.0201
    1WF      WF68270  20.159  16.878   2.500 -0.1711 -0.0109 -0.2102
    1WF      WF68271   1.078  10.154   0.815  0.2023 -0.0591 -0.1591
    1WF      WF68272   2.412  28.214   2.144 -0.1321  0.0599  0.1821
    1WF      WF68273  29.823   5.261   0.616 -0.3171 -0.0083 -0.2826
    1WF      WF68274  26.897  27.149   2.875  0.1082  0.4008  0.0314
    1WF      WF68275   4.836   4.170   0.401  0.1984  0.0185  0.1699
    1WF      WF68276   1.829  11.295   7.798  0.1913  0.0156  0.0747
    1WF      WF68277   7.192  17.274   7.517  0.2461  0.0426 -0.3122
    1WF      WF68278  14.915  22.463   7.442  0.1380  0.0676 -0.1968
    1WF      WF68279  19.947   8.962   3.427 -0.1255  0.0726 -0.0029
    1WF      WF68280  15.392   9.565   0.523 -0.0793 -0.2048 -0.1577
    1WF      WF68281   8.049  24.241   7.449 -0.0170  0.1955  0.0649
    1WF      WF68282  21.970  18.058   7.721 -0.0301 -0.1356  0.0581
    1WF      WF68283  22.605  24.501   0.029  0.0711  0.0420  0.3020
    1WF      WF68284   2.440   8.523   0.814  0.0437  0.2497  0.1648
    1WF      WF68285  28.753   9.340   1.275 -0.1341 -0.0480 -0.1089
    1WF      WF68286   9.626  16.635   1.136  0.3220 -0.2764  0.1052
    1WF      WF68287   3.111   9.781   0.356 -0.2947 -0.0561  0.0004
    1WF      WF68288  28.008   4.561   8.896  0.1487  0.0924  0.2576
    1WF      WF68289  13.823   3.662   2.453  0.0870 -0.0946  0.0489
    1WF      WF68290   0.384  10.760   0.499  0.0675 -0.2042 -0.1133
    1WF      WF68291  29.779   8.447   0.572 -0.1160 -0.3041  0.0642
    1WF      WF68292   4.699  22.673   0.859 -0.0922 -0.1800  0.1480
    1WF      WF68293  24.464  20.314   8.798 -0.2650  0.3345 -0.0113
    1WF      WF68294   2.423   1.258   9.081  0.0905 -0.1242  0.0003
    1WF      WF68295  13.633  13.901   0.501  0.0401 -0.1917  0.0504
    1WF      WF68296  25.362  16.405   0.328  0.0172 -0.0742 -0.0010
    1WF      WF68297  25.833  16.127   6.812 -0.0174  0.0517 -0.0326
    1WF      WF68298  20.620  12.977   8.860 -0.0266 -0.0355  0.2465
    1WF      WF68299  11.160  28.598   9.094  0.0922 -0.3091 -0.0132
    1WF      WF68300  29.747  24.333   0.662 -0.0910  0.2413 -0.1214
    1WF      WF68301   4.637   1.117   0.011 -0.1180  0.0878  0.2908
    1WF      WF68302  27.675  17.020   0.454  0.0120 -0.1478  0.1669
    1WF      WF68303  14.385  28.722   1.383 -0.2538 -0.1771  0.1118
    1WF      WF68304  13.665  27.185   8.942  0.1569 -0.1497 -0.0491
    1WF      WF68305  15.171   3.352   8.318  0.1945 -0.0575  0.1114
    1WF      WF68306  22.690   7.360   8.985 -0.0145  0.0323  0.0702
    1WF      WF68307  13.553   6.684   4.210 -0.2219 -0.1309  0.1101
    1WF      WF68308  27.011  14.014   7.343  0.0684  0.1385 -0.2048
    1WF      WF68309   0.033   6.879   1.457 -0.2320 -0.3432 -0.1376
    1WF      WF68310  15.189   0.652   2.486  0.1321  0.0937  0.2363
    1WF      WF68311   3.214   6.365   9.510 -0.0999 -0.1847  0.2169
    1WF      WF68312  29.303  14.427   9.211  0.0952 -0.0447 -0.1695
    1WF      WF68313   9.742   9.024   1.712 -0.0165 -0.2540  0.0692
    1WF      WF68314   7.571   4.186   0.719  0.1033 -0.4734  0.0738
    1WF      WF68315  27.919   7.872   1.589  0.0289 -0.0164 -0.2814
    1WF      WF68316   6.911   9.189   0.074 -0.1738 -0.1059  0.2627
    1WF      WF68317  19.419   2.440   1.642  0.0889  0.2965  0.2073
    1WF      WF68318  12.012  23.209   7.381 -0.2431  0.1960 -0.3079
    1WF      WF68319   2.962  18.623   9.151  0.3153  0.0941  0.2136
    1WF      WF68320  17.419  25.094   0.502 -0.0791 -0.2027  0.1717
    1WF      WF68321  16.353   2.388   1.082 -0.0925  0.0432  0.1986
    1WF      WF68322   6.604  18.658   7.871 -0.0328  0.1823  0.1245
    1WF      WF68323   2.700   6.067   6.400  0.2057 -0.0734  0.1601
    1WF      WF68324  26.148  28.357   1.719  0.1045  0.2976  0.0543
    1WF      WF68325  22.545  12.494   0.944 -0.0547  0.0659  0.0551
    1WF      WF68326  14.313  27.310   0.121  0.1669 -0.2267 -0.2667
    1WF      WF68327   3.145   5.201   0.606 -0.1102  0.2687  0.0503
    1WF      WF68328  24.428  28.674   0.686  0.4738 -0.0030 -0.1290
    1WF      WF68329  23.876  26.259   0.023  0.1334 -0.4667 -0.1048
    1WF      WF68330   8.443  11.530   2.249  0.0409 -0.0894 -0.1720
    1WF      WF68331  28.223  26.983   7.366  0.1057  0.1301  0.4525
    1WF      WF68332   9.091  13.821   7.336 -0.1996  0.0341  0.1450
    1WF      WF68333   0.377  12.538   8.899 -0.1791  0.0584 -0.2490
    1WF      WF68334  21.388  28.437   0.771 -0.0099 -0.1528 -0.1751
    1WF      WF68335  29.551   4.488   7.749 -0.3115 -0.0168 -0.0336
    1WF      WF68336  28.738  17.256   7.904  0.1123  0.0622  0.2065
    1WF      WF68337  11.032   9.774   9.429  0.0273  0.0498  0.0468
    1WF      WF68338  18.634  15.099   8.457 -0.0679 -0.2530 -0.0585
    1WF      WF68339  16.293  15.704   0.012  0.3332 -0.0782  0.0090
    1WF      WF68340  16.555  11.420   0.044  0.2028 -0.0007  0.3065
    1WF      WF68341   2.966   4.994   0.155  0.0627  0.2626  0.1069
    1WF      WF68342  21.889   8.033   2.884  0.3193  0.0539 -0.2425
    1WF      WF68343   4.573  15.665   0.402 -0.3307  0.1701  0.2339
    1WF      WF68344   0.171  24.204   2.870  0.1057 -0.2537 -0.0092
    1WF      WF68345   3.175  21.913   7.559  0.0657  0.1295  0.2971
    1WF      WF68346   3.836   2.076   8.310 -0.2723  0.1611  0.0024
    1WF      WF68347  24.329  22.743   7.098  0.3955  0.0038 -0.0261
    1WF      WF68348   5.260  23.132   9.325  0.2110  0.5304 -0.0675
    1WF      WF68349  16.791  17.118   9.128  0.1702 -0.2606  0.2867
    1WF      WF68350   6.551  29.453   7.791 -0.0914  0.1505  0.1475
    1WF      WF68351   8.652  28.725   6.255 -0.1737 -0.1846 -0.3679
    1WF      WF68352  29.662  19.191   1.227 -0.2077  0.0307  0.1071
    1WF      WF68353   1.903  15.764   0.792 -0.0651 -0.0590 -0.2388
    1WF      WF68354  17.040  12.576   1.365  0.0830 -0.1063 -0.0635
    1WF      WF68355  16.041   0.791   2.155 -0.0581  0.1125  0.0468
    1WF      WF68356   8.332  18.017   7.164 -0.2724 -0.0807  0.0475
    1WF      WF68357   9.082  10.895   8.502 -0.0947  0.1020 -0.1368
    1WF      WF68358  17.388  12.902   2.285  0.0092 -0.2059  0.0385
    1WF      WF68359  15.406  19.892   8.168  0.0262 -0.2024  0.0134
    1WF      WF68360  17.524   1.644   2.205 -0.0462 -0.2942  0.0820
    1WF      WF68361   9.001  23.208   0.324  0.0102 -0.2115  0.0983
    1WF      WF68362  21.887  10.860   9.103  0.0292 -0.1488  0.0750
    1WF      WF68363  29.726  29.830   8.712 -0.1967  0.2418 -0.0626
    1WF      WF68364   7.242  18.897   1.123 -0.1849 -0.2049  0.0929
    1WF      WF68365   1.240   8.536   8.887  0.1295  0.0742 -0.1344
    1WF      WF68366   6.462  13.345   9.426 -0.1306  0.2009  0.0773
    1WF      WF68367  20.585  14.364   8.930 -0.1588 -0.5099  0.0825
    1WF      WF68368  21.755  11.687   1.690  0.0362 -0.2808 -0.1152
    1WF      WF68369  27.359   0.426   7.898 -0.0506  0.0139  0.1760
    1WF      WF68370  17.879   5.358   2.439  0.1491 -0.2248  0.3240
    1WF      WF68371   9.686  13.460   0.975  0.3967  0.0689  0.0702
    1WF      WF68372  22.274  25.772   8.895  0.1041 -0.4566 -0.1935
    1WF      WF68373  15.373   9.150   1.437 -0.0376 -0.2078  0.1312
    1WF      WF68374  13.734  12.578   2.021 -0.0945  0.0417 -0.1230
    1WF      WF68375   9.642  23.137   7.928  0.0617  0.0980 -0.2228
    1WF      WF68376   9.880   4.348   8.762 -0.0256  0.2115  0.1030
    1WF      WF68377  24.281  27.649   1.310  0.0401 -0.0219  0.1123
    1WF      WF68378   8.851  10.063   9.413 -0.1539  0.1278 -0.0227
    1WF      WF68379  27.936  26.312   9.307 -0.2677 -0.0724 -0.0028
    1WF      WF68380  10.246  26.861   0.454 -0.0156 -0.1708 -0.2306
    1WF      WF68381   5.780  19.934   5.594  0.0855  0.1472  0.2266
    1WF      WF68382  20.944  28.758   0.426 -0.0150 -0.4674  0.1850
    1WF      WF68383  23.393  19.962   7.305 -0.0740  0.2573 -0.1714
    1WF      WF68384   6.402  19.653   0.711 -0.0184  0.0033 -0.1974
    1WF      WF68385  21.392  22.133   0.997 -0.1394 -0.1283  0.1352
    1WF      WF68386  13.410  23.671   2.061  0.0305 -0.1270  0.2581
    1WF      WF68387   3.363  25.266   7.376  0.1020 -0.0286 -0.1514
    1WF      WF68388   0.291  28.280   0.440  0.1194  0.0318  0.4287
    1WF      WF68389   6.564   3.070   8.753 -0.0383  0.1860 -0.0257
    1WF      WF68390  12.738  22.595   6.105 -0.0051 -0.0320  0.2387
    1WF      WF68391  11.658  27.303   1.450  0.0751  0.0237  0.0287
    1WF      WF68392   8.221  18.139   8.376 -0.3060  0.1119 -0.0592
    1WF      WF68393   3.544   3.661   1.625  0.1244  0.1771 -0.1403
    1WF      WF68394  22.189   6.629   1.566  0.1342  0.3105  0.0146
    1WF      WF68395  15.240  16.667   1.123  0.1029  0.0649 -0.1715
    1WF      WF68396  15.831  14.338   6.773 -0.1801 -0.0073  0.0900
    1WF      WF68397  25.361  23.626   1.738 -0.0403  0.0386  0.3494
    1WF      WF68398  24.410   2.197   8.935 -0.1219  0.2314 -0.2029
    1WF      WF68399   6.037  28.808   0.470  0.0395  0.1165 -0.2527
    1WF      WF68400  18.783   1.539   0.543  0.0316  0.1010  0.2398
    1WF      WF68401   3.654  18.827   9.256  0.1145  0.2045  0.1354
    1WF      WF68402  17.528   3.116   0.317 -0.3667  0.0046  0.0205
    1WF      WF68403  11.091  15.987   2.635  0.0710 -0.1303 -0.1839
    1WF      WF68404  13.106  10.044   0.723  0.2766  0.1675 -0.0446
    1WF      WF68405   4.055  13.656   8.390  0.3325 -0.0488  0.1670
    1WF      WF68406  14.646  22.360   7.018 -0.1555 -0.1847 -0.1378
    1WF      WF68407  14.234   1.786   1.741 -0.2247 -0.0726 -0.0207
    1WF      WF68408   2.339  16.069   0.815  0.1963  0.2396  0.1094
    1WF      WF68409  28.432  18.986   0.620  0.0653 -0.0924 -0.1648
    1WF      WF68410   6.259   5.933   8.381 -0.0456  0.1696 -0.1346
    1WF      WF68411  12.259  26.349   1.349  0.0339  0.1344  0.2974
    1WF      WF68412  17.890  14.734   2.580  0.1365  0.0162  0.0636
    1WF      WF68413  28.456  26.495   1.631  0.2100 -0.1739 -0.2066
    1WF      WF68414   8.586  13.968   0.274  0.1950  0.0735 -0.2423
    1WF      WF68415  10.921   9.280   9.491 -0.1917 -0.0741 -0.1101
    1WF      WF68416  19.224   0.066   9.210  0.0301 -0.1201 -0.2943
    1WF      WF68417  21.887  22.819   2.675  0.0815  0.0048  0.0951
    1WF      WF68418  17.609  21.391   6.956 -0.0031  0.1819 -0.0740
    1WF      WF68419  12.641   9.900   0.739  0.2295  0.0761 -0.1656
    1WF      WF68420   7.024  18.166   0.515 -0.2450  0.1503 -0.1843
    1WF      WF68421  12.594  25.995   1.529  0.0410 -0.1620 -0.2023
    1WF      WF68422   6.459  14.155   8.710  0.1670  0.1731  0.3263
    1WF      WF68423   1.504  21.377   0.541 -0.3620  0.1271  0.0014
    1WF      WF68424  28.730  23.594   0.397 -0.0160  0.1348  0.0069
    1WF      WF68425   8.161  16.488   7.652 -0.0636  0.1330  0.2742
    1WF      WF68426   2.788   0.986   1.581  0.0194  0.0605 -0.0016
    1WF      WF68427  26.545   0.289   9.149  0.1626  0.1618  0.1162
    1WF      WF68428  20.582   6.595   2.236 -0.1287  0.3068  0.1043
    1WF      WF68429   1.857  11.358   8.449 -0.2160 -0.1812 -0.1460
    1WF      WF68430  20.200  23.132   1.213  0.0295  0.2477 -0.0171
    1WF      WF68431  27.502  11.634   0.104  0.0738  0.0887  0.0495
    1WF      WF68432  24.210  15.837   6.987 -0.1414  0.0711 -0.0157
    1WF      WF68433   6.640   6.297   8.475  0.0277 -0.0804 -0.1453
    1WF      WF68434  29.480  21.311   2.323  0.3578  0.0457 -0.1164
    1WF      WF68435   6.735   5.936   8.185 -0.1114  0.0938 -0.0269
    1WF      WF68436  29.306  14.836   1.127  0.1306  0.0760  0.1530
    1WF      WF68437   6.275  23.734   9.126 -0.0666 -0.0852  0.3332
    1WF      WF68438  26.267   0.246   0.893 -0.0974  0.2212 -0.0925
    1WF      WF68439   9.978  23.467   7.995  0.0746 -0.2946  0.0929
    1WF      WF68440  23.979   2.912   0.531  0.0541  0.0644 -0.0116
    1WF      WF68441  28.016  27.886   8.565  0.1684 -0.1576 -0.1107
    1WF      WF68442   3.765  21.970   7.883 -0.1565  0.0589  0.0711
    1WF      WF68443  14.674  28.512   3.016 -0.3046  0.0207 -0.0528
    1WF      WF68444  16.654  15.765   8.291  0.1654  0.1008  0.0920
    1WF      WF68445  11.515  13.368   0.041  0.1554  0.2846  0.3435
    1WF      WF68446  18.544  23.917   0.072 -0.1433 -0.0109  0.0403
    1WF      WF68447  21.987   9.869   1.212  0.2135 -0.1046  0.2461
    1WF      WF68448   1.164  27.230   6.922 -0.0142 -0.0559  0.1205
    1WF      WF68449   0.805  16.306   0.235 -0.0590 -0.2095 -0.0533
    1WF      WF68450   4.224  12.806   5.651  0.3033 -0.1820 -0.1385
    1WF      WF68451  26.251   7.367   8.319 -0.1790  0.1322 -0.0734
    1WF      WF68452  10.033  14.736   8.503  0.3728  0.0308 -0.0864
    1WF      WF68453   5.712  13.036   2.715 -0.4433  0.0865 -0.1133
    1WF      WF68454  22.770  11.929   2.692  0.1163  0.2085 -0.0359
    1WF      WF68455  16.550  21.554   1.863 -0.0521  0.0290  0.2920
    1WF      WF68456  28.767   3.614   1.887  0.0303  0.1165 -0.0545
    1WF      WF68457  17.681   6.327   1.484 -0.1059 -0.0491 -0.2859
    1WF      WF68458  13.135  19.507   7.454 -0.2335  0.1361 -0.1954
    1WF      WF68459  27.885   5.699   3.059  0.0783  0.0591  0.1122
    1WF      WF68460   9.784  21.598   0.674 -0.3059  0.1472 -0.0562
    1WF      WF68461  25.737  23.442   2.022  0.0649 -0.0222 -0.0972
    1WF      WF68462  11.474  10.823   8.000  0.2764  0.1219  0.1462
    1WF      WF68463   9.099   5.693   0.583  0.0480 -0.0917 -0.1424
    1WF      WF68464  14.731   2.305   2.718  0.0307  0.0369 -0.0830
    1WF      WF68465   1.843  14.343   1.702 -0.0385  0.0039  0.0607
    1WF      WF68466  10.283  19.331   2.846  0.1689 -0.2747 -0.1620
    1WF      WF68467   2.647  15.180   7.153  0.1317  0.3088  0.2599
    1WF      WF68468   6.832  19.349   2.252  0.1263 -0.0695  0.2659
    1WF      WF68469  15.042   4.361   2.600  0.1917 -0.3359 -0.0605
    1WF      WF68470  28.112   8.923   0.085 -0.1515 -0.1813 -0.2276
    1WF      WF68471  14.947  21.731   8.513  0.0729 -0.0138 -0.0486
    1WF      WF68472  22.756   2.157   2.053 -0.0344  0.2831  0.0758
    1WF      WF68473   1.176  28.137   0.050 -0.0110  0.1067 -0.3642
    1WF      WF68474  11.567  22.793   1.588  0.1189  0.4495  0.0296
    1WF      WF68475  11.857  15.256   0.190 -0.1694  0.0446  0.3650
    1WF      WF68476  24.420   2.581   9.306  0.0925  0.1045  0.0074
    1WF      WF68477  14.309   1.072   0.135  0.0415  0.1083 -0.2200
    1WF      WF68478  29.388  13.132   7.731  0.1638 -0.1888 -0.0972
    1WF      WF68479  13.637   4.124   2.298  0.0834 -0.3129  0.2538
    1WF      WF68480   1.221  18.181   8.608  0.2508 -0.3550  0.0258
    1WF      WF68481   9.379   1.150   6.570 -0.0552 -0.0697  0.2163
    1WF      WF68482  13.535  10.253   7.877 -0.2063  0.1873  0.1602
    1WF      WF68483   8.905  25.803   6.795 -0.1309 -0.2392 -0.2371
    1WF      WF68484  29.096  23.765   1.133 -0.2440  0.1975 -0.1441
    1WF      WF68485  20.107   9.912   1.891 -0.0302  0.0892  0.1550
    1WF      WF68486  28.823  22.617   8.666 -0.0865 -0.0838  0.1418
    1WF      WF68487  10.990  20.084   7.975  0.3621  0.1476  0.0635
    1WF      WF68488  21.530   5.822   1.298 -0.1047  0.1349 -0.2711
    1WF      WF68489  18.038   2.919   9.530  0.1216  0.0503  0.1701
    1WF      WF68490   5.163   2.450   8.568  0.3337 -0.0768 -0.1830
    1WF      WF68491   3.755  14.677   0.666  0.3247 -0.2526 -0.2562
    1WF      WF68492  28.167  28.661   2.326  0.2518  0.2160 -0.1903
    1WF      WF68493   1.225  29.006   6.961 -0.0495 -0.2639 -0.2113
    1WF      WF68494  19.706  12.534   0.300  0.1384  0.1177 -0.0680
    1WF      WF68495   8.533  25.235   8.001 -0.3018  0.0815 -0.0114
    1WF      WF68496  11.902  12.882   1.900 -0.1344 -0.0561 -0.0287
    1WF      WF68497  17.867   9.757   2.269  0.0531 -0.0231  0.2171
    1WF      WF68498   6.754   4.577   0.255 -0.2214  0.0907  0.0785
    1WF      WF68499  25.073   0.794   9.112  0.3671 -0.0272 -0.0527
    1WF      WF68500  22.378   1.464   3.472 -0.1581 -0.1897 -0.0757
    1WF      WF68501   9.930  29.307   8.477 -0.2706  0.1212 -0.5070
    1WF      WF68502  26.512  22.937   0.247  0.0680  0.1445  0.0388
    1WF      WF68503   5.385  16.186   8.345  0.0114 -0.2356 -0.0904
    1WF      WF68504  10.265  10.513   2.208  0.0108 -0.2035 -0.2281
    1WF      WF68505   0.187  11.905   6.299  0.3780 -0.2068 -0.0270
    1WF      WF68506  22.639  12.278   0.464  0.2465  0.2844  0.0206
    1WF      WF68507   9.361  24.926   8.872  0.2519 -0.0735 -0.0365
    1WF      WF68508  18.236  12.215   8.172  0.1852 -0.1213 -0.0848
    1WF      WF68509  25.236  15.176   8.523 -0.0038  0.3855  0.1816
    1WF      WF68510  13.319   2.995   1.170 -0.0186 -0.1244 -0.2251
    1WF      WF68511  20.072  16.271   9.463  0.1041  0.0558 -0.2430
    1WF      WF68512  29.767  29.590   9.164 -0.3798  0.0199  0.0657
    1WF      WF68513  10.172  22.245   7.139  0.0876  0.2198  0.0493
    1WF      WF68514  19.311   3.584   0.068  0.0088  0.1056  0.0687
    1WF      WF68515   5.846  25.794   5.527 -0.0300  0.0508  0.3258
    1WF      WF68516   7.228  22.767   0.320 -0.1581  0.0099 -0.2193
    1WF      WF68517   9.097   5.975   0.183 -0.0561  0.2093  0.1168
    1WF      WF68518  12.979   0.563   9.413  0.0142  0.0620 -0.3871
    1WF      WF68519  29.176   0.035   5.741 -0.1227  0.1959 -0.2096
    1WF      WF68520  22.487  12.985   1.023 -0.1494 -0.0541 -0.2567
    1WF      WF68521  24.104   6.910   2.343  0.0531 -0.6220 -0.1387
    1WF      WF68522   6.350  18.656   8.296 -0.0125  0.0508 -0.0256
    1WF      WF68523  10.574  29.226   1.621 -0.1074 -0.1552 -0.1332
    1WF      WF68524   5.220  11.589   7.484  0.0627  0.1434  0.0825
    1WF      WF68525  22.269  13.189   9.237  0.1632 -0.1060 -0.0351
    1WF      WF68526  15.017  18.637   8.353  0.2398 -0.3200 -0.0238
    1WF      WF68527   9.714   3.186   8.028  0.0701  0.1064  0.2426
    1WF      WF68528   0.576  14.148   3.124  0.0719 -0.2149 -0.2648
    1WF      WF68529  13.781  10.698   1.691  0.1614  0.2382  0.0287
    1WF      WF68530  19.301  25.708   7.837 -0.4056 -0.0060  0.2331
    1WF      WF68531  17.322  26.692   3.329  0.1747 -0.0280 -0.4759
    1WF      WF68532  16.587  12.378   1.618 -0.3097 -0.0805  0.1857
    1WF      WF68533  24.972  10.088   8.127 -0.0278 -0.0402 -0.0371
    1WF      WF68534   9.152   0.872   0.192  0.0481  0.1339  0.0839
    1WF      WF68535   5.636  11.245   7.652 -0.2227  0.1699  0.3559
    1WF      WF68536   1.215   4.780   0.168  0.1916  0.0877  0.1581
    1WF      WF68537   7.309  16.335   8.727 -0.1122 -0.0814 -0.4620
    1WF      WF68538  16.012  22.036   7.453  0.2751  0.2121  0.0624
    1WF      WF68539   8.966   1.277   2.177 -0.2218 -0.0974  0.1682
    1WF      WF68540   4.952   6.683   1.280 -0.0715 -0.2267 -0.2044
    1WF      WF68541  25.820  27.938   1.627 -0.2740  0.1138  0.0091
    1WF      WF68542  15.176   7.538   2.329  0.3436  0.0096  0.0101
    1WF      WF68543  12.441   7.352   3.005  0.2471 -0.2028  0.2388
    1WF      WF68544  10.807  17.854   0.091  0.4398  0.0253  0.0092
    1WF      WF68545  26.835  15.704   8.421  0.0004  0.1638  0.1796
    1WF      WF68546  19.336  18.111   6.865 -0.0279  0.2318 -0.0594
    1WF      WF68547   6.880  27.044   0.609  0.1308 -0.0962 -0.2050
    1WF      WF68548   3.917   7.441   2.110 -0.0618  0.0134  0.3166
    1WF      WF68549  15.631   4.944   8.920  0.2199 -0.0602 -0.0837
    1WF      WF68550  11.129   9.289   0.468 -0.0202  0.0135 -0.2915
    1WF      WF68551  15.854  23.960   8.064 -0.1427 -0.1573 -0.2338
    1WF      WF68552  25.529  27.592   6.539  0.0531 -0.2633  0.0048
    1WF      WF68553   5.840   6.103   8.054  0.1799  0.0509  0.0664
    1WF      WF68554  16.758  22.090   5.692 -0.2226 -0.1952 -0.3408
    1WF      WF68555  14.193   0.951   9.183  0.0138  0.1063 -0.0782
    1WF      WF68556  24.380  10.461   2.949  0.0438  0.2958 -0.1966
    1WF      WF68557  18.588  13.771   0.455  0.0871 -0.0671  0.2057
    1WF      WF68558  20.517   8.561   8.178 -0.2326 -0.0259 -0.2057
    1WF      WF68559  27.643  26.453   8.958  0.0281  0.0153 -0.0000
    1WF      WF68560   7.899  21.494   0.380 -0.1175 -0.1051 -0.3560
    1WF      WF68561   7.664  21.534   0.844  0.2072 -0.1631  0.0013
    1WF      WF68562  16.125  24.369   6.676 -0.0632  0.0464  0.1903
    1WF      WF68563  20.485  18.833   9.065  0.5342 -0.1012 -0.0158
    1WF      WF68564  18.016  26.470   7.118 -0.0423  0.1083 -0.4392
    1WF      WF68565  28.729  10.668   2.140  0.0481 -0.1222 -0.2549
    1WF      WF68566  28.617   9.745   2.850  0.2842  0.2314  0.1007
    1WF      WF68567  14.792   1.161   0.348 -0.1354 -0.2261 -0.0144
    1WF      WF68568  10.196   7.544   9.117 -0.1418  0.1367 -0.0275
    1WF      WF68569  24.289  18.761   1.597 -0.0764 -0.0322 -0.3015
    1WF      WF68570  29.194  27.380   9.434  0.0480  0.1450  0.1616
    1WF      WF68571   2.250  29.563   0.116 -0.2377 -0.0597  0.1456
    1WF      WF68572  12.204   4.990   0.642 -0.1853 -0.2144  0.1313
    1WF      WF68573  26.223  11.184   8.336 -0.0509 -0.1164  0.2850
    1WF      WF68574   8.671  14.033   7.293 -0.2244 -0.0029 -0.0175
    1WF      WF68575  27.034  18.937   0.179  0.0178 -0.2462 -0.2321
    1WF      WF68576  14.179  25.075   1.329 -0.1897 -0.1679  0.1267
    1WF      WF68577  13.480   2.336   9.362 -0.0980  0.2723 -0.1350
    1WF      WF68578  19.711  10.457   9.021  0.0365  0.2172  0.1193
    1WF      WF68579   0.765  18.445   6.579 -0.3021  0.1923  0.2179
    1WF      WF68580  15.625  14.673   2.367 -0.2053  0.0078  0.2989
    1WF      WF68581  18.776  24.828   0.553 -0.0318 -0.0803  0.2361
    1WF      WF68582   3.930   3.607   1.254 -0.0842  0.1370  0.1028
    1WF      WF68583   4.771  18.980   0.130  0.0435  0.1869  0.3923
    1WF      WF68584  26.080   5.257   1.368 -0.2420 -0.0139  0.3293
    1WF      WF68585  28.675   6.933   0.058  0.0875  0.2359  0.0572
    1WF      WF68586   6.132  17.004   1.718  0.0930  0.2367 -0.2398
    1WF      WF68587   9.670  29.617   1.019  0.2628  0.2988 -0.1798
    1WF      WF68588  15.548  18.727   8.194 -0.2506  0.0045 -0.1784
    1WF      WF68589   9.398  25.594   5.979 -0.2233  0.0242 -0.2021
    1WF      WF68590   1.359  12.657   1.981 -0.0504 -0.0528  0.0103
    1WF      WF68591   0.851  29.083   8.861  0.0192 -0.1880 -0.0298
    1WF      WF68592   4.882  19.556   9.086 -0.0637  0.3206 -0.0681
    1WF      WF68593  26.516  16.615   3.073  0.1204  0.1400  0.0587
    1WF      WF68594  23.788  26.636   1.265  0.0560 -0.2306 -0.3511
    1WF      WF68595  15.199  29.550   1.618 -0.0602  0.0341  0.1545
    1WF      WF68596  15.281  24.820   8.384 -0.1219  0.0646  0.1837
    1WF      WF68597   6.226  10.147   0.084  0.2728  0.0527  0.0737
    1WF      WF68598  29.547   3.344   0.157 -0.0575 -0.6456 -0.0731
    1WF      WF68599  29.443  21.136   8.767 -0.0579  0.3556  0.1018
    1WF      WF68600   2.925   1.276   1.242 -0.0820  0.0751 -0.2534
    1WF      WF68601   0.324   2.781   1.283 -0.0496  0.0971  0.5018
    1WF      WF68602  28.239  12.480   2.337  0.0418 -0.0226 -0.0797
    1WF      WF68603   2.880  15.141   1.874 -0.0428 -0.4263 -0.0463
    1WF      WF68604   0.228  10.465   6.850  0.0891  0.0921 -0.0716
    1WF      WF68605  28.738  27.782   7.761 -0.1215 -0.0407 -0.3290
    1WF      WF68606  21.595  13.957   7.839 -0.2618 -0.1151  0.0232
    1WF      WF68607  15.616   8.751   1.794  0.2438  0.0065  0.1358
    1WF      WF68608   1.862  22.863   9.244 -0.2271 -0.3312  0.0740
    1WF      WF68609  17.516  15.792   8.711 -0.0241 -0.0071  0.1432
    1WF      WF68610  28.291  14.985   8.400  0.0244 -0.0176 -0.3139
    1WF      WF68611  16.262  17.152   9.114  0.1650 -0.1507 -0.0088
    1WF      WF68612  14.189   3.404   4.401 -0.0696  0.0087 -0.4551
    1WF      WF68613  19.312   3.561   2.172 -0.1991  0.1882 -0.0519
    1WF      WF68614   0.017  11.705   8.553 -0.2257  0.2649 -0.0647
    1WF      WF68615  18.530  29.440   7.857  0.1734 -0.0648 -0.1964
    1WF      WF68616  13.482  28.532   1.974  0.1259 -0.0217 -0.0865
    1WF      WF68617  16.406  29.045   8.433  0.1012 -0.0821  0.4013
    1WF      WF68618   6.884  10.860   6.616 -0.2611 -0.1971 -0.2059
    1WF      WF68619   8.215   6.492   7.996 -0.1842 -0.0235  0.3125
    1WF      WF68620  23.610  12.452   2.826 -0.1503  0.3780  0.0708
    1WF      WF68621   0.475   6.700   1.414 -0.0509 -0.1418  0.0439
    1WF      WF68622  19.612  17.851   0.855  0.1099 -0.0792 -0.1557
    1WF      WF68623  26.850   6.825   2.844  0.1796  0.0516 -0.2125
    1WF      WF68624  18.977  24.777   6.701  0.0313  0.2638 -0.0547
    1WF      WF68625  23.479   5.613   8.795  0.1987 -0.2541  0.2139
    1WF      WF68626  14.367  13.680   2.486  0.1476  0.2203  0.0632
    1WF      WF68627  24.991  15.984   9.434  0.0156 -0.1751 -0.1549
    1WF      WF68628   5.382  17.839   8.133 -0.3011  0.1888 -0.1720
    1WF      WF68629  17.277  25.488   7.598  0.1937  0.4671  0.2053
    1WF      WF68630  25.097  27.243   0.283 -0.1077 -0.0676  0.0523
    1WF      WF68631  19.070  18.533   1.151  0.0291 -0.1369 -0.1863
    1WF      WF68632  27.302  17.732   8.723  0.2666  0.1470 -0.0278
    1WF      WF68633   0.988   4.257   8.280  0.1505  0.0992 -0.0559
    1WF      WF68634   1.859  20.090   2.085 -0.1995  0.2041  0.2301
    1WF      WF68635   7.367  15.032   8.052 -0.0668 -0.1939 -0.1850
    1WF      WF68636  20.121   6.811   8.007 -0.4432  0.1384 -0.0940
    1WF      WF68637  27.894  10.624   8.530 -0.1416  0.3769  0.0788
    1WF      WF68638  22.391  16.272   0.466  0.2114 -0.1246 -0.0658
    1WF      WF68639   8.078  13.499   1.280 -0.0545  0.2625  0.0332
    1WF      WF68640   3.986  27.732   7.224 -0.0680 -0.1028 -0.3157
    1WF      WF68641  17.795  25.216   7.371 -0.0893  0.0070 -0.1347
    1WF      WF68642  25.120  20.079   1.584 -0.0001  0.0061 -0.2671
    1WF      WF68643  15.360  23.890   8.163 -0.2010 -0.1635 -0.1193
    1WF      WF68644  24.086   1.766   2.262 -0.1972  0.2562 -0.0996
    1WF      WF68645  24.740   4.571   0.188 -0.0594 -0.0389  0.2030
    1WF      WF68646  16.443  26.842   6.953 -0.0305 -0.0740  0.1283
    1WF      WF68647  14.824  13.088   0.835 -0.0019 -0.0403  0.2054
    1WF      WF68648  11.121  28.891   9.489  0.0122  0.0505 -0.3623
    1WF      WF68649  11.639   3.443   1.120 -0.0398 -0.0531 -0.0345
    1WF      WF68650  23.567   3.322   0.555  0.1349  0.2022  0.1948
    1WF      WF68651  20.264   9.912   3.107 -0.1756  0.2370  0.0337
    1WF      WF68652   2.356  11.107   8.006 -0.2781  0.0378 -0.3798
    1WF      WF68653  14.150  13.774   7.185  0.1010  0.2774  0.2331
    1WF      WF68654   4.758  29.271   2.124  0.0071 -0.2453 -0.0182
    1WF      WF68655  24.857  10.458   1.669 -0.0023  0.4271 -0.2088
    1WF      WF68656  20.325  25.196   8.980 -0.1374  0.0664 -0.0615
    1WF      WF68657   0.177   2.961   8.576  0.0812 -0.0497  0.1687
    1WF      WF68658  22.074  25.374   9.184  0.2448  0.0979  0.0994
    1WF      WF68659   2.834   2.221   8.250  0.0076 -0.4171  0.0796
    1WF      WF68660  12.006  26.555   9.296  0.3256  0.2896 -0.2165
    1WF      WF68661   0.142   2.815   9.094  0.0212 -0.0515 -0.0126
    1WF      WF68662   9.798  28.115   7.634 -0.2372 -0.3871  0.0516
    1WF      WF68663   9.610  29.148   2.727 -0.0557 -0.1325  0.0774
    1WF      WF68664   5.201  29.323   8.410  0.2062  0.0330  0.0511
    1WF      WF68665   0.327  20.327   1.457  0.1116  0.0623  0.1098
    1WF      WF68666   1.301  11.703   8.647 -0.0540  0.1993  0.0203
    1WF      WF68667  21.506  17.418   8.724 -0.1239 -0.1651 -0.2372
    1WF      WF68668  23.914  28.897   0.869  0.4287  0.1110  0.0641
    1WF      WF68669   0.103  12.732   1.099  0.2267 -0.1669 -0.0062
    1WF      WF68670  19.317   6.010   8.806  0.1393 -0.0217 -0.0046
    1WF      WF68671  26.118  25.854   0.504  0.0294 -0.1131 -0.2505
    1WF      WF68672  18.522  23.505   9.195  0.0716 -0.1394  0.3148
    1WF      WF68673  15.892  10.514   7.045  0.0080  0.1657  0.1646
    1WF      WF68674   5.169   2.064   8.292  0.0054  0.4108 -0.1423
    1WF      WF68675  15.888  11.664   8.714 -0.2439 -0.3143  0.0131
    1WF      WF68676   6.368  25.305   1.138 -0.0071 -0.4117 -0.2110
    1WF      WF68677   1.483  15.499   0.758 -0.0946  0.2097  0.0248
    1WF      WF68678  26.272  27.187   7.292  0.5408 -0.0532 -0.1035
    1WF      WF68679  16.391  25.361   7.692  0.0073  0.1501  0.0219
    1WF      WF68680  16.085   5.014   1.561 -0.1823 -0.0800  0.1447
    1WF      WF68681  23.444   1.559   7.905  0.2666 -0.3634 -0.2564
    1WF      WF68682  20.984  17.419   9.004 -0.1693  0.1819  0.0081
    1WF      WF68683  23.520   7.401   8.636 -0.1609 -0.1008  0.1466
    1WF      WF68684   9.790  21.461   7.246  0.2100 -0.1004  0.2110
    1WF      WF68685  20.741  13.933   8.673  0.3039 -0.1332 -0.1456
    1WF      WF68686  13.871  23.453   8.965 -0.2502  0.1279 -0.1228
    1WF      WF68687  20.848  23.544   6.914 -0.0598  0.1175 -0.1073
    1WF      WF68688   2.840   7.261   8.824 -0.0345 -0.0466  0.1343
    1WF      WF68689  26.066  20.573   0.066  0.0392 -0.0835 -0.2325
    1WF      WF68690  18.150  22.136   6.037 -0.2291  0.2411 -0.2179
    1WF      WF68691  11.070  10.552   8.105  0.1289  0.3076  0.0381
    1WF      WF68692   9.395  28.907   7.914  0.2481  0.0386  0.1453
    1WF      WF68693  25.878   1.632   1.516  0.0638  0.1134 -0.2947
    1WF      WF68694  13.596   7.075   9.529 -0.0958  0.0104 -0.1898
    1WF      WF68695  21.700   3.726   0.841  0.1903 -0.1837 -0.0868
    1WF      WF68696   3.817  16.920   9.179  0.1559 -0.2222  0.2235
    1WF      WF68697  11.651  27.219   6.921  0.2785 -0.0721 -0.3318
    1WF      WF68698  14.205   3.965   2.338  0.4365 -0.3199 -0.0143
    1WF      WF68699  24.457  21.404   9.371  0.1072 -0.0608 -0.1202
    1WF      WF68700  29.648  21.302   9.217  0.4028 -0.1732 -0.2036
    1WF      WF68701   9.481   4.566   9.048 -0.2158  0.1323  0.0718
    1WF      WF68702  26.860   5.746   7.412  0.0863 -0.0824  0.1179
    1WF      WF68703   7.933  19.812   2.717 -0.1963  0.0642 -0.0002
    1WF      WF68704  17.404   1.342   8.900 -0.2475 -0.1562 -0.0499
    1WF      WF68705   0.928  27.756   9.487  0.1744  0.1311 -0.2419
    1WF      WF68706   1.727  28.016   0.064  0.0694 -0.0130 -0.0381
    1WF      WF68707  25.908   5.844   3.389  0.0543 -0.0973  0.0128
    1WF      WF68708  21.621  20.772   7.674  0.0082  0.0453  0.2434
    1WF      WF68709  25.169   2.712   8.184 -0.0449  0.0598  0.0767
    1WF      WF68710  16.051  18.630   8.287  0.1464  0.0267  0.1199
    1WF      WF68711   9.526  18.040   7.945  0.3117 -0.1853  0.0899
    1WF      WF68712  23.352   4.197   0.953  0.2153  0.2749  0.1767
    1WF      WF68713  17.083   6.153   9.329 -0.1477  0.1973 -0.0276
    1WF      WF68714  17.274  21.886   6.847  0.2036 -0.0410 -0.2396
    1WF      WF68715  26.437  16.535   0.586 -0.1115 -0.1480 -0.3822
    1WF      WF68716  22.627  13.413   0.811  0.2634  0.3117 -0.0893
    1WF      WF68717  22.417  17.258   7.512  0.0657 -0.1189  0.0846
    1WF      WF68718   0.734  27.993   0.446  0.1825 -0.3966 -0.1865
    1WF      WF68719  18.243   8.026   9.044  0.2224 -0.0258 -0.2743
    1WF      WF68720  20.874   0.986   1.479 -0.1470 -0.1142 -0.0130
    1WF      WF68721  27.701  26.752   7.206 -0.2935 -0.1280  0.0747
    1WF      WF68722  12.645  25.387   9.084  0.0102  0.1769  0.1160
    1WF      WF68723   9.143  18.553   9.196 -0.2018 -0.1869  0.1158
    1WF      WF68724   5.829  23.800   2.420  0.3700  0.1103  0.0641
    1WF      WF68725  22.614  24.845   7.994  0.0703 -0.0314 -0.0618
    1WF      WF68726   3.935  23.820   0.498 -0.1144  0.3032 -0.0785
    1WF      WF68727  25.100   1.241   8.782  0.2174  0.3701  0.1733
    1WF      WF68728   4.853  25.008   8.475  0.0517 -0.1154  0.1586
    1WF      WF68729  24.108  20.624   8.791 -0.1875 -0.3167  0.0005
    1WF      WF68730   4.273   2.457   6.253 -0.0535 -0.0224  0.3179
    1WF      WF68731  22.949   2.499   2.653  0.2478  0.0383  0.2259
    1WF      WF68732   1.956   8.773   0.864 -0.0460 -0.1441 -0.1146
    1WF      WF68733   9.488  17.184   7.626  0.0474  0.0330  0.3246
    1WF      WF68734  25.627   3.331   8.805 -0.0589 -0.1635  0.0982
    1WF      WF68735  20.419   2.752   0.106  0.0626 -0.1571  0.0561
    1WF      WF68736  13.563   6.716   0.370 -0.2407  0.0733 -0.2467
    1WF      WF68737  22.465  23.256   7.765  0.0257  0.1627  0.2493
    1WF      WF68738   4.964   4.038   1.369  0.0271  0.0368  0.1519
    1WF      WF68739   8.541   8.689   9.094 -0.0205  0.0596  0.1618
    1WF      WF68740  25.853   0.428   1.100 -0.1299  0.2818 -0.1798
    1WF      WF68741  15.611   0.915   2.322 -0.0221 -0.1865  0.0005
    1WF      WF68742  24.295  12.132   0.231  0.1353  0.0188  0.1781
    1WF      WF68743   8.591   0.298   7.113  0.1275  0.0436 -0.2746
    1WF      WF68744  20.708  27.817   8.855  0.0158 -0.0479  0.0803
    1WF      WF68745   0.717  23.065   0.138 -0.0719  0.0680  0.1461
    1WF      WF68746   4.754  26.113   8.728 -0.0755  0.0336 -0.0955
    1WF      WF68747   2.925  27.077   1.922 -0.2853 -0.0430 -0.1441
    1WF      WF68748  19.391  29.188   8.451 -0.2003  0.0240 -0.0861
    1WF      WF68749  23.603   8.549   0.069 -0.0435  0.0438  0.1077
    1WF      WF68750   5.047  28.850   8.368 -0.1430  0.1664  0.1047
    1WF      WF68751   4.055  17.764   3.090 -0.0728  0.1081  0.1111
    1WF      WF68752  20.571  23.856   9.172 -0.2470 -0.2761  0.1583
    1WF      WF68753   5.642   5.152   1.599  0.0803 -0.2731 -0.0432
    1WF      WF68754  25.560  16.378   7.633  0.1569  0.0143  0.1620
    1WF      WF68755  16.015  10.288   1.975 -0.2635 -0.1147  0.0630
    1WF      WF68756   9.505  18.560   8.873  0.1541 -0.0266  0.0348
    1WF      WF68757   2.011  17.848   8.557  0.1698  0.0053 -0.1135
    1WF      WF68758  28.214   3.575   8.737 -0.4353 -0.1722 -0.0062
    1WF      WF68759  24.773   1.343   0.399  0.0657  0.3102  0.1340
    1WF      WF68760  10.298  26.397   0.274  0.3609  0.1382  0.1717
    1WF      WF68761   4.729   1.493   8.052 -0.0715  0.1816 -0.1295
    1WF      WF68762  29.691  27.908   1.212 -0.2656  0.2692  0.0089
    1WF      WF68763  11.458   8.426   8.838 -0.3010 -0.2892 -0.0544
    1WF      WF68764  16.540  13.848   8.696 -0.3547 -0.0382 -0.0708
    1WF      WF68765   0.609   8.694   8.831  0.0441  0.4402 -0.0290
    1WF      WF68766  24.532  24.648   0.638  0.1316 -0.0889 -0.0688
    1WF      WF68767  18.903  28.993   8.584  0.0024 -0.0872  0.5079
    1WF      WF68768  11.145  15.134   7.876  0.1192  0.0655  0.2272
    1WF      WF68769   3.882   0.789   1.780  0.0663  0.4308 -0.1463
    1WF      WF68770   8.966  23.804   7.524  0.2029  0.1719 -0.1701
    1WF      WF68771  26.231  25.247   9.305  0.0975  0.0820 -0.0898
    1WF      WF68772  11.750  26.759   1.595 -0.0165 -0.0697 -0.0389
    1WF      WF68773  17.625  18.815   9.077  0.2169 -0.1256  0.2352
    1WF      WF68774  15.116   2.670   2.632 -0.1204 -0.0588  0.3957
    1WF      WF68775  25.715  19.527   7.522  0.0295 -0.1523 -0.0226
    1WF      WF68776  18.841   9.241   7.189 -0.1820  0.0612  0.2579
    1WF      WF68777  11.695   1.413   1.971 -0.1830  0.0109  0.0576
    1WF      WF68778  24.275  18.298   1.367  0.0879  0.1904 -0.0464
    1WF      WF68779  18.287  23.939   9.095 -0.2339 -0.1696 -0.0431
    1WF      WF68780  21.888  25.910   0.799 -0.0280  0.1115  0.0837
    1WF      WF68781   5.596  28.914   0.687 -0.0043 -0.0605  0.1822
    1WF      WF68782  19.399   3.269   2.593  0.2282 -0.0434 -0.0740
    1WF      WF68783   3.708  29.294   6.326 -0.0763 -0.2526  0.0853
    1WF      WF68784  18.840  10.426   0.321  0.1551 -0.0624 -0.0493
    1WF      WF68785  15.153  16.299   0.714  0.3009  0.0556 -0.0937
    1WF      WF68786  25.214   4.046   0.877  0.0557  0.1305  0.1130
    1WF      WF68787   9.947  27.343   0.349  0.2587  0.3743 -0.3550
    1WF      WF68788  28.658  19.655   9.050  0.0310  0.0543 -0.0257
    1WF      WF68789   6.333   8.758   9.260 -0.0010  0.0442  0.0531
    1WF      WF68790   7.962  25.875   0.081  0.2327  0.0495 -0.0006
    1WF      WF68791  20.428  16.941   0.457 -0.1160 -0.3205  0.1533
    1WF      WF68792  18.234   4.100   0.909  0.1400 -0.0071  0.0134
    1WF      WF68793  12.343  23.204   7.034  0.1548  0.1745 -0.2329
    1WF      WF68794  20.015  26.126   8.221  0.0871 -0.1885  0.1135
    1WF      WF68795   9.793  28.613   7.579 -0.1286  0.0650 -0.2754
    1WF      WF68796   8.128  27.671   2.354  0.0055 -0.2379  0.1725
    1WF      WF68797  20.277   4.200   9.331  0.3161 -0.1246  0.0845
    1WF      WF68798  20.712  11.944   1.449 -0.0400  0.3479 -0.0053
    1WF      WF68799   8.257   1.273   9.083  0.0068 -0.0611 -0.5258
    1WF      WF68800   5.288   5.236   7.651  0.0482  0.3310 -0.2360
    1WF      WF68801   3.172   9.054   1.646 -0.2060  0.3022  0.0126
    1WF      WF68802  27.919  11.805   0.325 -0.0337 -0.0576 -0.0451
    1WF      WF68803   2.107   8.133   8.399  0.1412 -0.0954 -0.1437
    1WF      WF68804   6.729  23.393   7.327  0.1562 -0.1387 -0.1600
    1WF      WF68805  28.385  17.836   0.529 -0.0183  0.4139  0.0222
    1WF      WF68806  11.989   0.550   0.999 -0.0365 -0.0863 -0.0175
    1WF      WF68807  15.883  19.691   0.409 -0.1170 -0.4099  0.3928
    1WF      WF68808   8.151  14.911   9.178  0.1234 -0.1093  0.0936
    1WF      WF68809  17.194   6.134   8.843 -0.2205  0.1364  0.1269
    1WF      WF68810  15.368  25.467   6.705  0.1725 -0.0596  0.0604
    1WF      WF68811  11.561  23.168   9.493 -0.1153 -0.1792  0.2681
    1WF      WF68812  27.933  13.861   0.156 -0.2215  0.0006  0.0834
    1WF      WF68813   1.210  16.104   8.330 -0.2145 -0.3165 -0.2076
    1WF      WF68814   8.438   5.341   1.701 -0.0482  0.3932 -0.1061
    1WF      WF68815  22.007  26.253   0.500 -0.1685 -0.2008  0.0627
    1WF      WF68816  24.578   9.741   1.026 -0.2059  0.0397 -0.1916
    1WF      WF68817  19.516   9.217   0.741  0.0978  0.0148 -0.0719
    1WF      WF68818  23.857  26.384   1.701 -0.3159  0.2218 -0.0313
    1WF      WF68819  13.699  17.324   5.826 -0.3801  0.0939 -0.0354
    1WF      WF68820  25.618  23.651   2.759 -0.0563  0.1009  0.2491
    1WF      WF68821   7.812  23.949   9.286 -0.0869 -0.0483 -0.2635
    1WF      WF68822  22.377  21.253   9.502  0.0540 -0.0611  0.2155
    1WF      WF68823   4.001  21.805   8.257  0.0724  0.0829 -0.2047
    1WF      WF68824  28.341  14.495   7.073 -0.2337  0.0217  0.0205
    1WF      WF68825   8.667  17.831   8.399  0.0226 -0.4185  0.2679
    1WF      WF68826  10.658  19.051   9.332 -0.0206 -0.1362 -0.0963
    1WF      WF68827  21.547  27.855   0.374  0.0700 -0.1598  0.1873
    1WF      WF68828  16.352  21.131   8.694  0.0022  0.4194 -0.3299
    1WF      WF68829  29.320  29.112   7.285  0.3008  0.4415 -0.2296
    1WF      WF68830  28.838  23.932   0.760  0.1171  0.3892 -0.3197
    1WF      WF68831  20.901  26.960   1.264  0.0123 -0.0724  0.0660
    1WF      WF68832  19.708  10.520   3.128  0.0588 -0.1851 -0.2535
    1WF      WF68833  11.702   5.633   0.144  0.2502  0.0751 -0.0170
    1WF      WF68834  29.496   0.833   1.573 -0.1135  0.2574 -0.1582
    1WF      WF68835  21.493   8.658   0.101 -0.1304  0.0921  0.2950
    1WF      WF68836  10.579  19.768   7.915  0.1891  0.1414  0.0426
    1WF      WF68837  14.922  11.081   0.343  0.1614 -0.1179 -0.1737
    1WF      WF68838  21.224  28.122   8.953 -0.0904 -0.0076  0.1737
    1WF      WF68839  11.096  25.532   0.409  0.3159  0.0342 -0.2064
    1WF      WF68840  20.124  15.922   8.667 -0.1234  0.3957 -0.0700
    1WF      WF68841   5.757   6.510   2.642 -0.0776  0.1408 -0.2247
    1WF      WF68842  11.309  27.721   9.180 -0.0176  0.3943 -0.1327
    1WF      WF68843  10.382  24.365   1.861  0.0695 -0.0839  0.0184
    1WF      WF68844  23.080   3.898   2.354  0.3456  0.1445  0.0149
    1WF      WF68845  22.555   0.505   7.073  0.1073  0.2882  0.0136
    1WF      WF68846  10.308   1.847   2.093 -0.0736  0.0500 -0.2001
    1WF      WF68847  27.545  23.521   1.045  0.4238 -0.0824 -0.3081
    1WF      WF68848   6.974  25.842   9.447  0.3264  0.1292 -0.2221
    1WF      WF68849  16.491  17.930   7.441  0.4507  0.1489 -0.2943
    1WF      WF68850  21.442  28.110   9.396 -0.0918  0.0562 -0.0430
    1WF      WF68851  10.923  12.411   8.704 -0.0194 -0.2513 -0.2115
    1WF      WF68852  18.263   4.343   8.176 -0.0784 -0.1850 -0.0444
    1WF      WF68853  15.998   3.880   1.068 -0.1943 -0.3855  0.3045
    1WF      WF68854  17.739  24.086   7.949 -0.1665 -0.1687 -0.2356
    1WF      WF68855  24.067  20.108   8.590 -0.0315 -0.1258  0.1284
    1WF      WF68856  26.929  23.776   8.806  0.2096  0.1119 -0.2274
    1WF      WF68857  15.943  12.219   8.513 -0.1342 -0.1797 -0.0428
    1WF      WF68858  15.667  17.323   8.733 -0.1544  0.0603 -0.0220
    1WF      WF68859  20.078  18.623   0.439 -0.1523 -0.1440  0.2164
    1WF      WF68860  28.071   6.753   6.676  0.3773 -0.3215  0.1082
    1WF      WF68861  25.892  22.739   9.221 -0.0547 -0.4388  0.0072
    1WF      WF68862  11.913  15.214   9.180  0.2130 -0.0002  0.2140
    1WF      WF68863  22.787  26.634   8.116  0.0041  0.2420  0.0838
    1WF      WF68864  12.448  14.109   2.356 -0.0573  0.0415  0.3245
    1WF      WF68865  13.794  25.886   7.584  0.0434 -0.7176  0.0494
    1WF      WF68866  10.055  12.260   8.163 -0.4101  0.0729 -0.2043
    1WF      WF68867  17.525   0.485   0.837 -0.2307  0.0389 -0.4426
    1WF      WF68868  18.432  17.742   6.855  0.0991  0.0106 -0.1790
    1WF      WF68869   6.495  10.314   7.345  0.0870 -0.0564  0.0700
    1WF      WF68870   4.521  25.387   8.505 -0.3119  0.0714 -0.4162
    1WF      WF68871   1.676   5.444   8.321  0.0251 -0.0049 -0.4292
    1WF      WF68872  18.384  11.833   9.333  0.1965 -0.4355 -0.1100
    1WF      WF68873  20.064   7.516   1.772 -0.0846  0.0986  0.0377
    1WF      WF68874  29.042  29.681   6.165 -0.0383  0.3361 -0.1317
    1WF      WF68875  27.610  17.694   8.308 -0.1243  0.3169 -0.2359
    1WF      WF68876  16.997  25.368   0.539 -0.4252  0.0553  0.0454
    1WF      WF68877  23.914  28.057   9.138 -0.2396  0.0427 -0.0345
    1WF      WF68878  18.835   2.984   0.640  0.1138  0.1308  0.1182
    1WF      WF68879   5.970  20.165   8.804 -0.2087 -0.0586 -0.1259
    1WF      WF68880   6.058   4.195   1.055 -0.0010 -0.1707  0.0699
    1WF      WF68881  27.807  17.715   1.124  0.0359 -0.0732  0.3586
    1WF      WF68882   6.776   2.416   6.745 -0.1281 -0.2042  0.1089
    1WF      WF68883  21.966  22.988   7.687 -0.0223 -0.0166 -0.0017
    1WF      WF68884  16.620  14.763   7.925 -0.0542  0.1297  0.0043
    1WF      WF68885  14.372   0.705   1.601  0.1119  0.3262  0.1214
    1WF      WF68886  27.750  24.300   1.895  0.2370  0.1835 -0.6745
    1WF      WF68887  13.335  14.908   7.790 -0.2201 -0.1516  0.1805
    1WF      WF68888   8.089   4.991   1.086 -0.3131 -0.3455  0.0478
    1WF      WF68889   0.095  27.744   7.120 -0.1243 -0.0393  0.1903
    1WF      WF68890   3.031   9.370   7.942 -0.1357  0.1033 -0.1437
    1WF      WF68891  16.997  24.016   9.029 -0.0446  0.0475 -0.1122
    1WF      WF68892  18.349  21.616   9.134  0.2775  0.2572  0.0366
    1WF      WF68893   9.097  25.846   6.312 -0.1320 -0.3000  0.0977
    1WF      WF68894  11.247  27.492   1.238 -0.2248  0.0977  0.2742
    1WF      WF68895  15.429  20.199   8.560  0.3718 -0.4102 -0.0573
    1WF      WF68896  23.592  14.203   8.272 -0.1063 -0.1271  0.0782
    1WF      WF68897  14.461  17.597   1.713  0.2698 -0.0365 -0.0751
    1WF      WF68898   5.061  24.807   8.003  0.0028 -0.1891  0.0427
    1WF      WF68899   4.564  12.351   9.055 -0.3820  0.0264 -0.2134
    1WF      WF68900  15.226  29.548   0.713 -0.3704  0.1548 -0.1585
    1WF      WF68901  26.023  17.842   0.743  0.1289  0.3399 -0.2139
    1WF      WF68902  25.001  10.324   7.697 -0.1722 -0.0578 -0.3978
    1WF      WF68903   3.781   9.934   0.543 -0.2058  0.1236 -0.3111
    1WF      WF68904  21.897  21.901   9.154 -0.1823 -0.0589  0.1653
    1WF      WF68905   0.961  16.377   1.919 -0.2288  0.0547 -0.1322
    1WF      WF68906  13.113   8.319   2.678 -0.1455 -0.1887 -0.1412
    1WF      WF68907  12.457   4.454   2.580  0.0784  0.1199 -0.0924
    1WF      WF68908  21.984  16.229   9.439  0.0158 -0.0364 -0.1457
    1WF      WF68909   6.412   0.248   0.439  0.0653 -0.0124  0.2487
    1WF      WF68910   0.143  14.757   8.488 -0.0513  0.2066 -0.0367
    1WF      WF68911  14.981  23.832   6.950 -0.1268 -0.0101  0.0806
    1WF      WF68912   0.368  16.607   7.541 -0.1957  0.0081 -0.0389
    1WF      WF68913  23.850  27.007   8.018 -0.1972  0.0347  0.2384
    1WF      WF68914  10.959  18.489   8.648 -0.3064  0.3310  0.0898
    1WF      WF68915  16.586  12.531   1.165 -0.1558  0.0180 -0.1693
    1WF      WF68916   8.352  11.056   0.429  0.0592  0.0894  0.2903
    1WF      WF68917  19.871   0.669   9.234 -0.1784 -0.0003 -0.1530
    1WF      WF68918   6.214  10.506   7.839  0.0299  0.0677  0.1041
    1WF      WF68919  18.251  20.990   0.050 -0.0082 -0.1884 -0.0444
    1WF      WF68920   7.467  21.245   0.511 -0.2274  0.0710  0.3199
    1WF      WF68921   3.741  24.140   6.404 -0.0140 -0.0802 -0.2720
    1WF      WF68922   4.717  19.598   7.984 -0.0185 -0.0682  0.0054
    1WF      WF68923  11.282  12.798   8.939  0.1743  0.3359  0.0917
    1WF      WF68924  24.479   5.773   1.011 -0.0027 -0.3660 -0.0398
    1WF      WF68925  10.780  23.418   8.115  0.2194  0.1214  0.3677
    1WF      WF68926  26.692  22.855   8.462  0.2668 -0.2165  0.2006
    1WF      WF68927  18.054   8.204   8.623  0.1603 -0.0900 -0.2982
    1WF      WF68928   6.054  10.624   9.484  0.0555 -0.0389  0.1505
    1WF      WF68929   0.748   7.515   7.317  0.2079 -0.2904  0.0574
    1WF      WF68930   1.995   1.125   9.396  0.1287 -0.0588  0.1921
    1WF      WF68931  17.377   6.577   1.176 -0.0316 -0.0026 -0.2032
    1WF      WF68932  28.103   9.742   0.875 -0.2400 -0.0352 -0.0758
    1WF      WF68933  13.042   5.255   1.864 -0.0694  0.1771  0.1335
    1WF      WF68934  22.644  13.388   8.961  0.0783  0.0938  0.0120
    1WF      WF68935   0.558  28.728   2.474 -0.5443 -0.0479 -0.1747
    1WF      WF68936  17.384  29.107   2.553  0.3289  0.1217 -0.2265
    1WF      WF68937  14.350  19.601   9.252  0.0197  0.1749 -0.1942
    1WF      WF68938  27.818  14.364   0.353  0.1826 -0.2626  0.0113
    1WF      WF68939  23.413  26.280   0.113  0.2202 -0.1317  0.1152
    1WF      WF68940   3.346  10.245   0.490 -0.0791  0.1746 -0.0683
    1WF      WF68941  19.589  12.274   7.223  0.0798  0.0124  0.0841
    1WF      WF68942   7.139  13.792   0.871  0.0293  0.1607 -0.1647
    1WF      WF68943  19.168  28.942   0.877 -0.1062  0.1217  0.4772
    1WF      WF68944  19.345  28.503   0.259  0.3549 -0.0133  0.1016
    1WF      WF68945   6.743  28.354   2.145  0.2390 -0.2566  0.0162
    1WF      WF68946  12.794  14.735   7.857 -0.2514  0.2869  0.0426
    1WF      WF68947  29.722  29.455   7.429 -0.0551  0.1066 -0.3579
    1WF      WF68948  23.467  11.250   1.121 -0.2243 -0.1249 -0.2623
    1WF      WF68949  24.952  24.734   3.218 -0.3146  0.1236 -0.1026
    1WF      WF68950  21.534  24.520   2.161 -0.0230 -0.5420 -0.3945
    1WF      WF68951  23.069  14.547   1.056 -0.1463  0.2157 -0.1508
    1WF      WF68952   9.852  23.579   0.275 -0.2180  0.3715  0.1787
    1WF      WF68953  16.095  14.703   7.936 -0.2117  0.1428  0.1547
    1WF      WF68954   0.622   2.901   0.794 -0.1830 -0.1693  0.1734
    1WF      WF68955   9.218  26.898   7.232 -0.1378  0.5514 -0.1437
    1WF      WF68956   0.138   9.322   8.220  0.0285 -0.0714  0.0166
    1WF      WF68957  21.840   5.841   1.761 -0.0577 -0.0936 -0.0226
    1WF      WF68958   6.471   5.078   0.877 -0.2368  0.0993 -0.0345
    1WF      WF68959   4.189  14.576   0.604 -0.1149 -0.6303 -0.2707
    1WF      WF68960  14.725  15.882   8.865 -0.0952  0.0228 -0.2158
    1WF      WF68961  17.557  22.665   0.582  0.0020  0.0966 -0.0264
    1WF      WF68962  21.391   4.456   9.469  0.0311  0.1850 -0.0742
    1WF      WF68963  18.377   9.938   2.011 -0.1853  0.1237  0.2783
    1WF      WF68964   3.042   0.432   8.094  0.1659 -0.0209 -0.0416
    1WF      WF68965  21.983   7.053   0.855 -0.0879  0.1930 -0.2205
    1WF      WF68966   0.085   4.523   3.331 -0.1251 -0.0362 -0.0816
    1WF      WF68967   9.612  13.215   7.707 -0.2607 -0.0068  0.0052
    1WF      WF68968  18.328  27.053   8.907  0.1153  0.0288  0.0331
    1WF      WF68969  28.038  19.167   0.799 -0.2844 -0.0907 -0.1630
    1WF      WF68970  29.253  29.745   0.681  0.1619 -0.3364 -0.1434
    1WF      WF68971  13.241   6.778   0.745 -0.0493  0.2459 -0.1386
    1WF      WF68972   5.314   0.390   7.886 -0.3020  0.1498 -0.1725
    1WF      WF68973   8.022  11.249   0.078 -0.1631  0.0913  0.8013
    1WF      WF68974   3.722  21.052   9.235  0.2073 -0.1412  0.1567
    1WF      WF68975   5.683  11.557   7.243 -0.0395  0.2435  0.4881
    1WF      WF68976  18.324  19.469   0.018  0.3209  0.0546 -0.1108
    1WF      WF68977  29.508  27.514   2.400  0.2545 -0.1148 -0.0528
    1WF      WF68978  22.367  19.705   0.554  0.3919 -0.3021  0.0396
    1WF      WF68979  29.248  17.079   1.187 -0.1003  0.2067 -0.0725
    1WF      WF68980   4.412   1.936   1.911  0.2558 -0.0492 -0.0637
    1WF      WF68981  10.725  23.968   9.477 -0.4321  0.0015 -0.1561
    1WF      WF68982  11.537  11.290   3.097 -0.1758  0.1677 -0.1381
    1WF      WF68983  21.977  19.809   0.955 -0.1813 -0.2031  0.2201
    1WF      WF68984  18.020   3.956   1.419  0.0545 -0.0090 -0.1844
    1WF      WF68985   9.725  16.869   7.889 -0.4027 -0.2176 -0.1659
    1WF      WF68986  23.650  17.678   6.790  0.2834  0.0402 -0.2351
    1WF      WF68987  21.029  25.133   2.838 -0.0162 -0.0797 -0.0730
    1WF      WF68988  12.656  13.198   6.518 -0.1134 -0.3869 -0.2808
    1WF      WF68989  10.740   9.998   1.185  0.4446  0.1929 -0.0517
    1WF      WF68990  14.917   1.768   2.518 -0.1778 -0.2548 -0.4131
    1WF      WF68991  14.484  23.774   6.813  0.2105  0.0306 -0.1433
    1WF      WF68992   3.541  15.570   1.339  0.4404  0.0034  0.3912
    1WF      WF68993  25.093  28.282   1.439 -0.0244 -0.1396 -0.1015
    1WF      WF68994  13.230   0.957   2.326 -0.0343 -0.1518  0.1058
    1WF      WF68995   2.575  18.739   0.812 -0.0704  0.1536 -0.1419
    1WF      WF68996  10.410   0.563   8.120  0.0240  0.0591 -0.1203
    1WF      WF68997  29.638   2.813   0.372 -0.1233 -0.1334 -0.0938
    1WF      WF68998  18.869  14.634   0.813  0.1741 -0.2292 -0.2785
    1WF      WF68999  18.794  11.226   0.968 -0.0737 -0.3665  0.1977
    1WF      WF69000  28.924  25.597   0.765 -0.0382  0.0660 -0.1636
    1WF      WF69001  18.097   9.427   0.170 -0.1935  0.2163 -0.1970
    1WF      WF69002   2.133  25.969   8.945 -0.0970 -0.0100  0.1133
    1WF      WF69003  29.328   2.582   0.681  0.0414  0.0977  0.2250
    1WF      WF69004  10.266  23.890   0.099 -0.0188  0.0242 -0.1675
    1WF      WF69005  11.460  23.933   7.097  0.3065  0.0640 -0.0999
    1WF      WF69006  24.441  19.161   0.498 -0.1225 -0.0726 -0.2295
    1WF      WF69007  21.520   5.497   1.756  0.1900 -0.0894 -0.0483
    1WF      WF69008   6.396  17.742   9.475  0.0468  0.2342 -0.2361
    1WF      WF69009  15.410  13.136   9.107 -0.0357  0.0494  0.1400
    1WF      WF69010  24.876  24.827   8.028 -0.1707 -0.1338 -0.0814
    1WF      WF69011   7.004  25.202   8.347 -0.5086 -0.1692 -0.0831
    1WF      WF69012  25.053  15.695   2.854 -0.4533  0.3453 -0.3095
    1WF      WF69013   6.503   4.556   0.714 -0.2518  0.1045  0.0183
    1WF      WF69014  17.909   7.921   8.231  0.0041  0.1801 -0.0654
    1WF      WF69015   0.929   2.176   8.063 -0.1411  0.0906 -0.1225
    1WF      WF69016  11.521  23.408   7.195  0.0383  0.1601  0.1231
    1WF      WF69017  23.152  28.766   1.075 -0.0909 -0.0886 -0.2532
    1WF      WF69018  19.856  10.364   8.505  0.0718  0.1619  0.1029
    1WF      WF69019  26.583  14.463   0.666  0.1007  0.1362 -0.1247
    1WF      WF69020  20.055   0.645   7.450 -0.0637 -0.0237  0.0515
    1WF      WF69021   5.080  23.893   8.509  0.0985 -0.0130  0.0964
    1WF      WF69022   3.342  15.196   7.821 -0.0407  0.2123  0.1230
    1WF      WF69023  28.358  29.037   8.470 -0.0700 -0.2559 -0.2657
    1WF      WF69024  16.388  11.102   9.235 -0.2313 -0.1195 -0.0629
    1WF      WF69025   7.444  12.294   0.612 -0.0124  0.2551  0.0910
    1WF      WF69026   7.967  20.006   7.430  0.0645 -0.3612  0.0238
    1WF      WF69027   2.661   7.573   0.853 -0.1828 -0.0594  0.0771
    1WF      WF69028  13.802   0.685   6.765 -0.1635  0.1515  0.0064
    1WF      WF69029  13.224  14.073   0.666 -0.2572 -0.2183  0.0927
    1WF      WF69030   5.815  29.363   5.681  0.0406 -0.1113 -0.1035
    1WF      WF69031  28.752   6.786   8.707 -0.0721 -0.1317  0.0350
    1WF      WF69032   3.687  19.594   7.905  0.1005  0.2147  0.0800
    1WF      WF69033   0.381   6.175   9.478 -0.0746 -0.0038 -0.4241
    1WF      WF69034  26.231  23.489   1.898 -0.3626  0.4059  0.0555
    1WF      WF69035   9.494   9.327   1.324 -0.1063  0.2228 -0.1738
    1WF      WF69036  14.072  12.712   9.289  0.0473 -0.2068  0.0770
    1WF      WF69037  21.243   3.030   2.126 -0.0530  0.1496  0.0943
    1WF      WF69038   9.043  17.937   7.942  0.1633 -0.1253  0.1712
    1WF      WF69039  24.159   2.061   1.847 -0.2189  0.0709 -0.0934
    1WF      WF69040  14.558   1.528   9.469  0.4459  0.1654 -0.0326
    1WF      WF69041   1.944  24.729   2.007  0.0588 -0.0174 -0.2349
    1WF      WF69042   6.774   1.182   8.230 -0.0701 -0.0999 -0.2810
    1WF      WF69043  13.760   4.944   8.615 -0.2827  0.0167  0.0484
    1WF      WF69044  11.373  12.863   9.458  0.1413 -0.0565  0.0220
    1WF      WF69045   5.299   4.533   8.421  0.3109 -0.1332 -0.2689
    1WF      WF69046  17.385  18.328   5.294  0.0099  0.3870 -0.0053
    1WF      WF69047   5.716  17.056   8.750 -0.1426  0.0856 -0.0030
    1WF      WF69048   9.143  15.402   1.517  0.1440 -0.0364  0.0906
    1WF      WF69049  13.195  19.834   0.006 -0.0356 -0.2538  0.0200
    1WF      WF69050   5.306  16.509   1.925 -0.0531 -0.0092 -0.1878
    1WF      WF69051   6.160  12.494   0.701 -0.1933  0.1185  0.1316
    1WF      WF69052   8.301   7.095   6.955 -0.0088  0.0435  0.1017
    1WF      WF69053   0.939  26.343   9.189 -0.0722  0.1320 -0.2730
    1WF      WF69054   2.898   1.998   8.885  0.2147 -0.1610  0.0120
    1WF      WF69055  29.426   3.799   6.319  0.2440  0.0889 -0.0953
    1WF      WF69056  20.919   2.554   0.073  0.2805 -0.0944  0.2121
    1WF      WF69057  18.872   3.388   2.266  0.0418  0.2320  0.2816
    1WF      WF69058  21.739  16.030   8.449  0.0445 -0.1775 -0.5866
    1WF      WF69059   9.337  27.150   7.643  0.1304 -0.0283 -0.2102
    1WF      WF69060  23.328  12.647   9.078 -0.1073 -0.1165 -0.2971
    1WF      WF69061   8.885  28.191   8.884  0.0616 -0.0747  0.1267
    1WF      WF69062  21.121  18.241   1.044 -0.2516  0.1948  0.2151
    1WF      WF69063  25.520  28.286   8.651 -0.0419  0.0250 -0.1304
    1WF      WF69064  28.829   6.554   9.310  0.2332 -0.2367  0.0506
    1WF      WF69065  13.449  28.715   1.524 -0.0680 -0.2007 -0.2745
    1WF      WF69066  28.977  12.812   9.175 -0.4387 -0.2518 -0.1580
    1WF      WF69067  18.366  20.564   0.267 -0.1986 -0.1925 -0.6895
    1WF      WF69068   8.763   8.213   0.902  0.2128 -0.1688  0.2681
    1WF      WF69069  16.103  23.132   0.785 -0.1769  0.0815  0.1803
    1WF      WF69070  22.900   0.723   9.262  0.0134  0.3332  0.1578
    1WF      WF69071  26.315   5.413   8.768 -0.1051  0.2430 -0.3452
    1WF      WF69072  20.486  11.629   1.132 -0.2220  0.1370  0.0304
    1WF      WF69073  21.688  15.542   2.077 -0.0173 -0.0556  0.1959
    1WF      WF69074  20.169   3.446   0.838  0.0595  0.0775  0.0007
    1WF      WF69075   6.501  20.800   7.919  0.2240 -0.0262 -0.1879
    1WF      WF69076  21.461  11.766   8.504 -0.1448 -0.1187  0.0837
    1WF      WF69077  13.109  11.972   0.406 -0.1646 -0.0484 -0.2343
    1WF      WF69078  20.283  29.366   1.261  0.2168 -0.0989 -0.2226
    1WF      WF69079  26.089   6.546   0.784  0.3425 -0.2214 -0.2445
    1WF      WF69080   8.490  27.744   0.880 -0.1646  0.0772 -0.3469
    1WF      WF69081  17.061  15.449   8.172  0.1260  0.0926  0.1057
    1WF      WF69082   2.590  26.681   9.457 -0.3484  0.5377 -0.3640
    1WF      WF69083  19.488  27.518   8.927 -0.0199  0.2329  0.0318
    1WF      WF69084  28.858  15.210   0.378  0.0083 -0.4183 -0.0238
    1WF      WF69085  11.723   4.266   0.207 -0.2473 -0.4216  0.1880
    1WF      WF69086   2.569  18.548   1.310 -0.0536  0.0857 -0.0660
    1WF      WF69087  22.390  22.846   7.415 -0.0172 -0.2212 -0.0136
    1WF      WF69088   4.398   5.348   7.440  0.3516  0.0084  0.0493
    1WF      WF69089   6.486   5.363   1.243  0.0014  0.2446  0.2080
    1WF      WF69090  14.248  12.904   0.759 -0.0121 -0.0165 -0.2077
    1WF      WF69091   2.055  25.976   6.245  0.2128 -0.0780 -0.3320
    1WF      WF69092   2.116  18.461   1.528 -0.2107 -0.2837 -0.1760
    1WF      WF69093   4.036   7.979   8.292  0.1747 -0.1142  0.0269
    1WF      WF69094  12.232   5.197   8.710  0.0682 -0.1671  0.2831
    1WF      WF69095  26.930  15.181   0.105 -0.0302 -0.2141 -0.3348
    1WF      WF69096  29.786   6.516   9.371  0.1355  0.3978 -0.3760
    1WF      WF69097   9.469   3.423   8.645 -0.0942  0.0199  0.1931
    1WF      WF69098  13.094  28.296   0.327 -0.1322 -0.0904 -0.0728
    1WF      WF69099  24.778   4.245   9.347  0.0819 -0.2699  0.0856
    1WF      WF69100  23.156   2.079   2.380 -0.1682  0.0662 -0.1175
    1WF      WF69101   9.551  28.658   2.721 -0.2245  0.0612 -0.3358
    1WF      WF69102  23.403  23.043   2.198  0.2661 -0.2460 -0.2808
    1WF      WF69103   8.158   5.506   1.307  0.0040  0.0023 -0.0628
    1WF      WF69104   3.704  15.287   1.763 -0.2300  0.0413  0.2339
    1WF      WF69105  28.324  20.732   1.119  0.2682 -0.1875  0.0558
    1WF      WF69106   2.542  23.855   9.145 -0.1280  0.1313  0.0898
    1WF      WF69107  18.191  13.930   0.658  0.0873 -0.0106 -0.1785
    1WF      WF69108   8.706  15.360   8.291  0.2552  0.0562  0.1214
    1WF      WF69109   3.423  27.112   7.859  0.0036  0.0614 -0.1289
    1WF      WF69110  12.298  22.800   7.379  0.1865 -0.2066  0.2960
    1WF      WF69111   9.465  29.393   8.148 -0.3087 -0.0894  0.1011
    1WF      WF69112  18.987   3.481   0.555  0.1596 -0.1694 -0.0752
    1WF      WF69113  28.921  25.095   2.035 -0.1629  0.1379  0.0799
    1WF      WF69114  22.884  26.323   0.224  0.0486 -0.3271  0.2005
    1WF      WF69115   6.510  23.714   1.891  0.2407  0.2801  0.0416
    1WF      WF69116   5.410  13.952   2.647 -0.1180  0.0054 -0.2091
    1WF      WF69117  22.160   5.947   0.963 -0.0392 -0.0531  0.0259
    1WF      WF69118   0.520  19.502   0.236  0.0037 -0.0586 -0.0926
    1WF      WF69119  14.278  11.665   0.405 -0.2395  0.1694 -0.0073
    1WF      WF69120  12.416  12.061   8.068  0.0103 -0.0713  0.1579
    1WF      WF69121   6.043   3.119   1.594  0.3984  0.3158  0.0144
    1WF      WF69122  15.658   4.473   9.071 -0.2938 -0.0879  0.2193
    1WF      WF69123  21.894  22.350   0.812 -0.2949 -0.1902  0.2499
    1WF      WF69124  19.421  14.548   8.534 -0.2309 -0.4700 -0.0375
    1WF      WF69125  21.579  24.333   2.633 -0.2760 -0.1831 -0.1181
    1WF      WF69126  12.388  20.163   5.790 -0.2009 -0.1228 -0.1115
    1WF      WF69127  18.940   4.637   0.448  0.2264  0.0322 -0.1896
    1WF      WF69128   8.413  25.834   9.419 -0.1092 -0.1340  0.0165
    1WF      WF69129  13.468   8.035   2.592  0.1316 -0.1384  0.0312
    1WF      WF69130  18.781  21.956   8.303 -0.0106 -0.1476 -0.0870
    1WF      WF69131  28.073   9.009   9.050 -0.1046  0.2480  0.3786
    1WF      WF69132  28.894  29.855   0.967  0.0335 -0.0495  0.1766
    1WF      WF69133  27.190   7.641   0.473  0.1193 -0.2029 -0.1424
    1WF      WF69134   9.556   5.109   1.162  0.1206  0.2447  0.3005
    1WF      WF69135   6.940  27.261   1.023  0.0707 -0.0106 -0.1438
    1WF      WF69136   4.742  17.912   9.508 -0.1872  0.0367 -0.1345
    1WF      WF69137   3.428  24.854   8.945  0.1445 -0.4143 -0.0891
    1WF      WF69138   7.065   2.207   8.745 -0.1418 -0.0266 -0.1336
    1WF      WF69139   1.321  27.972   5.985 -0.1272  0.2552  0.0714
    1WF      WF69140   6.570  14.598   8.567 -0.0414 -0.2574 -0.1527
    1WF      WF69141  24.173  29.767   2.840 -0.0680 -0.3678 -0.3517
    1WF      WF69142  28.976  16.342   0.084  0.0150  0.1660  0.1040
    1WF      WF69143  19.968  16.739   0.296 -0.1707  0.1737  0.1543
    1WF      WF69144   6.300  26.468   6.756 -0.0453 -0.0257  0.0313
    1WF      WF69145  20.683  11.796   8.498 -0.1369 -0.0459 -0.1029
    1WF      WF69146   6.160   3.413   0.506 -0.0236 -0.1043  0.1080
    1WF      WF69147  15.829  20.512   8.477  0.0732  0.0393  0.0398
    1WF      WF69148  25.741  20.628   0.426  0.0710  0.1067  0.2711
    1WF      WF69149  12.781   6.281   2.260  0.0236  0.2083  0.1399
    1WF      WF69150   6.850   0.833   3.277  0.0041  0.1121  0.0292
    1WF      WF69151  14.190  26.142   0.184  0.0937  0.1451  0.1179
    1WF      WF69152  21.664  10.473   9.365 -0.1842 -0.3029  0.1957
    1WF      WF69153  13.252  22.464   8.935  0.1327 -0.2134  0.2645
    1WF      WF69154  16.139  14.142   8.790  0.0151  0.1452  0.2177
    1WF      WF69155   4.761  22.653   6.879  0.0734 -0.0062 -0.0800
    1WF      WF69156  14.573  27.235   8.069 -0.0228  0.0315  0.0640
    1WF      WF69157  10.779   0.716   2.348  0.0152 -0.0518  0.1155
    1WF      WF69158  11.749   2.228   1.257  0.0968 -0.0041 -0.0497
    1WF      WF69159  28.937  10.219   2.052  0.0002  0.1690  0.1310
    1WF      WF69160  22.591  28.239   1.185  0.2334  0.0181 -0.0525
    1WF      WF69161  29.786   9.213   1.745 -0.2820 -0.1446 -0.1676
    1WF      WF69162  26.329  22.095   1.372 -0.0485  0.1067  0.2684
    1WF      WF69163  15.435   7.853   1.991 -0.0496 -0.0043  0.2861
    1WF      WF69164  23.914  22.711   7.416 -0.2407  0.5486  0.2119
    1WF      WF69165   9.277   5.073   8.945 -0.0342 -0.2594  0.0056
    1WF      WF69166  27.746  22.219   7.650 -0.1525 -0.0432  0.2190
    1WF      WF69167  23.320  22.983   0.090  0.0221  0.2441  0.1155
    1WF      WF69168   8.109   7.678   0.144  0.0827 -0.3261 -0.0526
    1WF      WF69169  29.243  23.486   2.037  0.1346  0.2038 -0.2664
    1WF      WF69170  26.158  13.375   8.293  0.2550  0.1617  0.1695
    1WF      WF69171   0.005  11.032   0.332 -0.2517  0.3121 -0.3157
    1WF      WF69172  11.171  11.697   3.154  0.0648 -0.1400  0.1909
    1WF      WF69173  29.165  12.267   0.121  0.1907 -0.3494  0.1945
    1WF      WF69174  16.665  18.252   7.141 -0.4269  0.0717  0.2572
    1WF      WF69175   8.750   6.536   7.914 -0.3967  0.0793 -0.3368
    1WF      WF69176   9.767   4.783   0.887 -0.0767  0.1702 -0.0076
    1WF      WF69177   0.521  22.283   9.236 -0.0333  0.0993  0.0801
    1WF      WF69178   9.897  22.142   0.841 -0.1313  0.2750  0.1022
    1WF      WF69179  21.545  18.181   0.870  0.0467  0.1238 -0.2419
    1WF      WF69180  25.169  19.564   6.743  0.0128 -0.0997  0.0925
    1WF      WF69181   5.023  22.745   1.334 -0.3656  0.2164  0.1809
    1WF      WF69182  28.174   5.875   1.645  0.0669  0.3000  0.1575
    1WF      WF69183  29.058  22.821   7.758  0.1117  0.1880  0.0498
    1WF      WF69184  26.986  15.517   1.115 -0.1956 -0.0653  0.0569
    1WF      WF69185  19.087  22.080   8.734 -0.0397  0.2397  0.0052
    1WF      WF69186  20.052  10.729   8.863 -0.1589 -0.0542  0.4916
    1WF      WF69187  20.227  15.330   0.362  0.0699 -0.1340 -0.0096
    1WF      WF69188   1.692  21.372   1.104 -0.0651  0.0209 -0.0952
    1WF      WF69189  14.405  27.669   7.897  0.1421  0.2174 -0.0188
    1WF      WF69190  24.379   5.516   0.596  0.2362  0.2391 -0.0113
    1WF      WF69191  10.990  14.983   1.161 -0.0933  0.0117  0.1791
    1WF      WF69192  18.949   1.634   2.542  0.0204 -0.2892  0.0962
    1WF      WF69193  26.896  20.064   2.456 -0.3931  0.2001  0.2372
    1WF      WF69194   4.482   3.923   1.257 -0.1071  0.0921 -0.0754
    1WF      WF69195   2.421  17.583   8.633  0.1405  0.2152  0.0562
    1WF      WF69196  15.253  27.026   6.516 -0.2076 -0.3699 -0.0053
    1WF      WF69197  16.136  11.849   8.281 -0.0919  0.1203 -0.0024
    1WF      WF69198  19.509   5.799   1.398 -0.0669 -0.3025 -0.1701
    1WF      WF69199  14.048  18.455   7.821  0.1181  0.3544  0.3198
    1WF      WF69200   9.428  13.527   0.486 -0.0086  0.0854 -0.1336
    1WF      WF69201  26.749  19.779   6.101  0.0523 -0.0241 -0.0082
    1WF      WF69202  27.880   4.220   8.477  0.0141  0.2988 -0.0600
    1WF      WF69203  16.774   8.144   3.397 -0.1238 -0.1796  0.1177
    1WF      WF69204  15.978  26.119   8.493  0.1226 -0.2412  0.0061
    1WF      WF69205   4.506  18.089   6.677 -0.1500 -0.2946  0.3346
    1WF      WF69206  25.744  24.715   1.872  0.0602  0.0418  0.3010
    1WF      WF69207  10.766  25.612   0.086  0.1663 -0.1482  0.4239
    1WF      WF69208  15.618  28.140   1.940  0.0630 -0.1161  0.2708
    1WF      WF69209   0.483  16.076   0.524 -0.2929  0.1408 -0.0205
    1WF      WF69210  27.736   5.305   0.976 -0.1497 -0.3144 -0.1642
    1WF      WF69211  23.253   3.956   3.588 -0.2025  0.4013 -0.3176
    1WF      WF69212   9.590   0.119   1.453 -0.0304 -0.2849  0.1630
    1WF      WF69213  19.935  22.072   6.748  0.3420 -0.2207  0.2826
    1WF      WF69214  12.659  10.264   7.905 -0.0086  0.3637  0.3456
    1WF      WF69215  14.505  20.124   9.446 -0.2996 -0.2520  0.6382
    1WF      WF69216   1.633  23.765   1.633 -0.1109 -0.3988 -0.2356
    1WF      WF69217  26.907   6.650   1.129  0.1416  0.0405  0.0300
    1WF      WF69218  11.426   6.033   0.148 -0.3574  0.1413 -0.1980
    1WF      WF69219   8.143  16.041   8.006 -0.2840  0.0147  0.1342
    1WF      WF69220   1.961   8.705   8.350 -0.0314  0.3206 -0.0565
    1WF      WF69221   0.607   5.241   8.342 -0.6252 -0.3001 -0.0484
    1WF      WF69222  11.505  18.964   0.938 -0.3468 -0.2536 -0.0697
    1WF      WF69223  12.007   6.485   8.611 -0.0017  0.0121  0.0011
    1WF      WF69224  11.830  11.183   9.377  0.0008 -0.1252  0.3333
    1WF      WF69225   4.886  17.271   2.872  0.1161 -0.0282  0.0576
    1WF      WF69226  10.027  24.586   1.490  0.0679 -0.2544 -0.1470
    1WF      WF69227  20.424  17.577   7.262 -0.0623 -0.1512 -0.1336
    1WF      WF69228  18.274  19.464   9.013  0.1473  0.3258  0.0318
    1WF      WF69229   7.727   6.428   8.088  0.1039 -0.0654  0.2917
    1WF      WF69230  17.963  22.233   8.432  0.0254 -0.3070  0.0111
    1WF      WF69231   0.323   7.355   3.156  0.0218  0.0064 -0.2584
    1WF      WF69232   6.528  23.552   6.218 -0.3463  0.0551 -0.1291
    1WF      WF69233   3.728  23.844   0.030 -0.0799 -0.2547 -0.1464
    1WF      WF69234  20.632  25.270   8.597  0.0930 -0.0468  0.1448
    1WF      WF69235  22.723   2.079   2.564  0.1353  0.1147 -0.1063
    1WF      WF69236   7.628  21.370   0.021  0.1536  0.0331  0.2801
    1WF      WF69237  24.549  18.247   0.933  0.2593 -0.1545 -0.2475
    1WF      WF69238  19.855  18.289   0.717  0.0042 -0.2049  0.0200
    1WF      WF69239  11.903  16.273   0.859  0.3115 -0.1467 -0.0505
    1WF      WF69240   1.519   1.259   9.504  0.1432  0.0815 -0.1662
    1WF      WF69241  23.399   2.516   2.423  0.0316  0.1634 -0.1511
    1WF      WF69242   9.957  21.891   7.419 -0.3997  0.1522  0.0809
    1WF      WF69243  15.542  24.415   8.709  0.2141 -0.1079  0.2230
    1WF      WF69244  11.100   9.746   8.911 -0.1544  0.1821  0.1380
    1WF      WF69245  12.628  14.885   1.050  0.1295 -0.3320  0.1457
    1WF      WF69246  19.107  19.344   7.181  0.1131 -0.0649 -0.0247
    1WF      WF69247   1.229   0.161   7.577 -0.0302 -0.0723  0.1171
    1WF      WF69248   4.405  10.805   1.400 -0.0262 -0.0200 -0.1235
    1WF      WF69249   5.955  11.140   9.473 -0.1503  0.1120  0.1016
    1WF      WF69250   1.852   6.036   7.988 -0.1510  0.1281  0.1280
    1WF      WF69251  12.839  15.798   0.894 -0.0064  0.1873 -0.0143
    1WF      WF69252   1.540   1.787   0.031 -0.0601 -0.1691 -0.0417
    1WF      WF69253   2.595   1.630   1.073 -0.0380  0.0737  0.0231
    1WF      WF69254   5.369  19.702   9.213 -0.2706  0.0469 -0.2086
    1WF      WF69255   7.611   5.791   0.561 -0.0142 -0.3913 -0.1509
    1WF      WF69256  10.086  24.088   1.427  0.2150  0.0998 -0.0647
    1WF      WF69257  28.341   1.367   2.156  0.0662 -0.1308 -0.2331
    1WF      WF69258   2.606   7.374   8.360  0.1398 -0.0633 -0.0157
    1WF      WF69259  23.049  24.514   0.176  0.3560 -0.1351 -0.0305
    1WF      WF69260  25.597   8.558   0.762 -0.1104 -0.1607 -0.0727
    1WF      WF69261  24.774   0.026   9.150 -0.1183  0.0730  0.0805
    1WF      WF69262   9.547  12.971   6.062  0.1236 -0.3241 -0.0662
    1WF      WF69263  11.557  26.346   1.412  0.0930  0.1228 -0.0763
    1WF      WF69264  21.700   3.879   1.284  0.3814 -0.0381 -0.2101
    1WF      WF69265  16.390  27.967   0.101 -0.1854 -0.1521  0.1562
    1WF      WF69266  10.517  29.236   8.538  0.1889  0.1281  0.0242
    1WF      WF69267  25.834  22.140   0.969 -0.3408 -0.1646 -0.1308
    1WF      WF69268   2.735  27.540   8.056  0.0244  0.1683  0.1630
    1WF      WF69269   7.035   6.350   8.121  0.0027 -0.1386 -0.0341
    1WF      WF69270   4.491  12.007   8.375 -0.2196 -0.0950 -0.2488
    1WF      WF69271  29.632   0.170   0.483  0.1473  0.2627 -0.1009
    1WF      WF69272   6.513   1.220   1.071 -0.1216 -0.0699  0.1415
    1WF      WF69273  25.674  13.156   0.276  0.1781 -0.2034  0.0490
    1WF      WF69274   4.667  27.355   0.846  0.1987 -0.3868 -0.1941
    1WF      WF69275   7.478   6.009   8.198  0.0845  0.3068 -0.2691
    1WF      WF69276   9.831  26.864   0.103 -0.2873  0.0722  0.1423
    1WF      WF69277  19.865  13.911   2.302 -0.3596 -0.2968 -0.3284
    1WF      WF69278  19.291   1.441   0.637  0.0658 -0.1170 -0.1982
    1WF      WF69279  27.013   6.117   7.082 -0.2141 -0.1891  0.0570
    1WF      WF69280   5.828   1.182   2.048 -0.1664  0.2593 -0.1212
    1WF      WF69281  16.687  23.636   9.022 -0.0560  0.0799 -0.1099
    1WF      WF69282  13.232  18.276   0.553 -0.1003  0.0820  0.0263
    1WF      WF69283  16.415   7.936   0.931 -0.0523  0.0095  0.2270
    1WF      WF69284  28.857  17.865   0.680 -0.1175  0.1251 -0.1438
    1WF      WF69285   9.917   6.769   9.371  0.0998  0.0201 -0.1159
    1WF      WF69286  20.003   9.829   1.422  0.2529  0.0261 -0.1361
    1WF      WF69287  19.228  19.941   0.510  0.1014 -0.1983 -0.3700
    1WF      WF69288  23.004   3.398   2.317  0.2650  0.4376  0.1157
    1WF      WF69289  29.825  20.730   1.457  0.0959  0.3078  0.5345
    1WF      WF69290  16.453  22.074   6.082 -0.0641  0.0078  0.3018
    1WF      WF69291  19.854  20.419   9.027 -0.2068  0.4437 -0.1698
    1WF      WF69292   2.368  11.314   8.729 -0.1123 -0.2576 -0.0172
    1WF      WF69293   7.950  27.471   7.526  0.1464 -0.2120 -0.0718
    1WF      WF69294  10.813  11.763   0.012  0.4064 -0.4297 -0.1698
    1WF      WF69295  21.539   8.930   3.146 -0.0642 -0.3066 -0.0630
    1WF      WF69296  10.843  11.689   2.155  0.0989 -0.0083  0.1981
    1WF      WF69297  28.140  27.678   1.585 -0.0681 -0.2213  0.1511
    1WF      WF69298  22.337  25.679   3.097  0.1119  0.0101  0.0780
    1WF      WF69299  22.928  27.608   7.708  0.0432 -0.1336 -0.0160
    1WF      WF69300   6.437   3.318   1.161  0.0547 -0.0044  0.0274
    1WF      WF69301  23.208   4.264   8.067 -0.1265 -0.1129 -0.0140
    1WF      WF69302  24.230  10.032   9.219  0.0304  0.1746 -0.4030
    1WF      WF69303   7.009  24.315   0.834  0.1947 -0.0144  0.3019
    1WF      WF69304  10.044   2.174   1.790 -0.1349 -0.0937 -0.0387
    1WF      WF69305  21.037   9.890   0.308  0.3925 -0.3523  0.0630
    1WF      WF69306   1.994  11.774   1.317 -0.1004  0.1535  0.3123
    1WF      WF69307   5.022   0.016   8.074  0.1458 -0.1741  0.2711
    1WF      WF69308  21.849   6.621   0.651 -0.3531 -0.0244  0.1215
    1WF      WF69309   5.312  22.876   2.275 -0.1820 -0.0352  0.0071
    1WF      WF69310   3.896  10.649   1.563 -0.2503  0.0648 -0.1830
    1WF      WF69311  23.155   3.015   2.637  0.4941  0.1173 -0.0161
    1WF      WF69312  20.518   6.317   8.721 -0.0558  0.0029  0.2234
    1WF      WF69313  18.069  15.520   0.270  0.2050 -0.1684 -0.1055
    1WF      WF69314  13.595  20.836   6.280  0.0912  0.0163  0.0985
    1WF      WF69315   8.161  24.491   8.420 -0.0748  0.2536 -0.2122
    1WF      WF69316  16.706  23.294   8.682  0.3866  0.0788  0.3151
    1WF      WF69317  17.579  18.931   7.092 -0.1063  0.2051  0.0738
    1WF      WF69318  18.680  14.863   8.056  0.1058 -0.1108  0.4314
    1WF      WF69319   0.311   0.171   5.877 -0.1229 -0.0458  0.0514
    1WF      WF69320   9.198  14.789   9.420  0.2022 -0.1233  0.2081
    1WF      WF69321  22.109   6.198   1.934 -0.1155  0.1855  0.0974
    1WF      WF69322  28.705  25.818   5.914 -0.2268 -0.0450  0.0554
    1WF      WF69323  25.369  14.384   7.477  0.2020 -0.0790 -0.1693
    1WF      WF69324  24.877   9.290   1.802  0.0657  0.0593 -0.0947
    1WF      WF69325  17.237  23.251   7.506 -0.3107  0.1241 -0.1385
    1WF      WF69326  11.757  17.734   7.646 -0.1154 -0.3183  0.0124
    1WF      WF69327   7.520  11.488   1.082  0.2457 -0.1437  0.3450
    1WF      WF69328  25.509  27.300   7.840  0.0477 -0.4811  0.4883
    1WF      WF69329   6.314  13.837   9.461 -0.3037 -0.0275  0.1484
    1WF      WF69330  18.042   1.695   2.313 -0.1843 -0.1773 -0.1800
    1WF      WF69331   7.989  25.864   9.140  0.0660  0.2937 -0.1826
    1WF      WF69332  27.531  17.425   1.542  0.0206 -0.0032 -0.0456
    1WF      WF69333  15.006  21.245   8.682  0.1036  0.1120  0.0562
    1WF      WF69334   0.581  29.389   2.408 -0.1161  0.0574  0.2393
    1WF      WF69335  21.908  20.275   8.129  0.0409  0.1108  0.0296
    1WF      WF69336  22.619  16.446   7.241 -0.0415  0.2206  0.1651
    1WF      WF69337  12.370   8.736   8.562  0.1649 -0.0818 -0.1416
    1WF      WF69338   2.364  12.700   7.578 -0.0808 -0.1302  0.1927
    1WF      WF69339  20.974   1.714   3.040  0.0241  0.0396  0.0684
    1WF      WF69340  22.356  18.751   7.993  0.2222 -0.3025 -0.3528
    1WF      WF69341  25.708   2.658   1.728  0.0073 -0.2830 -0.0226
    1WF      WF69342  17.398  21.705   7.787  0.0104  0.3435 -0.0186
    1WF      WF69343  19.965  20.901   8.915 -0.0354 -0.1222  0.1496
    1WF      WF69344   7.022   7.498   0.932  0.3213  0.0672  0.0952
    1WF      WF69345  16.871  28.839   8.462  0.0100  0.0105  0.0490
    1WF      WF69346   6.003   3.698   0.930  0.0175  0.0147  0.1001
    1WF      WF69347   6.704  17.189   7.727  0.1841  0.1677 -0.0722
    1WF      WF69348  20.304  18.606   5.875  0.1311  0.0507 -0.2373
    1WF      WF69349   9.757  17.126   6.349 -0.3032  0.0389 -0.2244
    1WF      WF69350  26.200  19.651   7.534  0.0157 -0.1109  0.2733
    1WF      WF69351   1.805  29.639   2.458 -0.3476 -0.0362  0.0496
    1WF      WF69352   8.969  15.771   1.078  0.0136 -0.0167 -0.1177
    1WF      WF69353  24.391  18.870   6.628  0.0919  0.0457 -0.2299
    1WF      WF69354  25.813  27.291   2.684 -0.0172  0.1367 -0.0482
    1WF      WF69355  12.221   0.235   0.716 -0.5677  0.1588 -0.1291
    1WF      WF69356  26.988   4.314   8.571  0.0064  0.1897 -0.0097
    1WF      WF69357   1.300   3.645   3.736  0.1821  0.2536 -0.0761
    1WF      WF69358  26.287   0.438   1.447 -0.0628  0.3310 -0.0341
    1WF      WF69359  22.720   0.004   1.049  0.0465  0.0422 -0.2981
    1WF      WF69360  12.828  22.701   9.187 -0.0135  0.0662  0.0356
    1WF      WF69361   4.585  21.758   5.794 -0.0039 -0.1466  0.2858
    1ION     NA69362   4.967  15.931   2.975  0.0912 -0.0673  0.2859
    1ION     NA69363   4.201  27.498   0.728 -0.1612  0.1122 -0.1452
    1ION     NA69364   3.612  22.591   0.771 -0.2154 -0.1527  0.2603
    1ION     NA69365  21.502  26.499   7.112  0.2379 -0.0870  0.0311
    1ION     NA69366  22.670   2.535   7.438  0.2777 -0.1360 -0.0654
    1ION     NA69367  13.170   6.994   7.859  0.0597 -0.4887 -0.0771
    1ION     NA69368  10.557  10.125   2.158  0.0219 -0.1655  0.1720
    1ION     NA69369  12.305   9.054   2.829  0.0718  0.1868 -0.1331
    1ION     NA69370  14.809  29.251   1.705 -0.1453 -0.1078  0.2156
    1ION     NA69371  23.072   7.212   9.529 -0.1757 -0.3284 -0.1349
    1ION     NA69372   1.499  28.577   2.096  0.0012 -0.2736  0.1124
    1ION     NA69373  15.496  11.280   2.336  0.4105 -0.0762 -0.2167
    1ION     NA69374  19.785   8.925   2.903 -0.1171 -0.2480  0.0309
    1ION     NA69375  14.706  14.809   6.463 -0.4012  0.0584  0.2402
    1ION     NA69376  14.289   2.300   3.529  0.1856 -0.2881  0.0351
    1ION     NA69377  13.183   5.646   8.433  0.0239 -0.2958  0.1830
    1ION     NA69378   7.057  20.929   0.495  0.1193  0.0849 -0.1951
    1ION     NA69379  22.089  13.967   2.480 -0.1518 -0.1673  0.1465
    1ION     NA69380   1.512  22.443   2.388  0.3120  0.2917 -0.1546
    1ION     NA69381  13.436  16.920   2.117 -0.0383 -0.1175  0.1730
    1ION     NA69382   5.709   8.550   1.064  0.4527  0.0008 -0.2382
    1ION     NA69383   8.485  22.696   8.257 -0.1825  0.0097 -0.0494
    1ION     NA69384   2.937  15.966   3.072 -0.0085  0.3767 -0.1061
    1ION     NA69385  20.896  25.245   5.851  0.0174  0.2943  0.3597
    1ION     NA69386   4.308  29.703   9.470 -0.1797 -0.1039  0.0342
    1ION     NA69387  17.044  15.435   0.541  0.1341  0.3132 -0.2362
    1ION     NA69388   2.613   4.950   7.945 -0.0347  0.1269 -0.3105
    1ION     NA69389  19.442  21.972   6.866 -0.0629 -0.3391 -0.0023
    1ION     NA69390   0.763  12.300   1.380  0.0675 -0.1422  0.2213
    1ION     NA69391   2.455   6.284   1.633 -0.0226  0.1477  0.1759
    1ION     NA69392  22.616  19.251   6.504  0.0061 -0.2565 -0.3460
    1ION     NA69393  21.219  28.970   6.870  0.0016  0.1597  0.2156
    1ION     NA69394  10.393   1.411   7.250 -0.0734  0.1308 -0.0731
    1ION     NA69395  20.117  21.935   5.921 -0.1057 -0.1782 -0.0040
    1ION     NA69396  14.699   8.125   7.671 -0.1098  0.2618 -0.3026
    1ION     NA69397   7.376   4.565   2.561  0.0410 -0.0981  0.1084
    1ION     NA69398  26.700   8.722   1.095  0.0041  0.0574 -0.0526
    1ION     NA69399  20.194  12.067   1.315 -0.0994  0.2838 -0.1159
    1ION     NA69400  29.803   1.590   1.590  0.0241  0.1310 -0.0638
    1ION     NA69401  16.567  27.111   1.034 -0.1391 -0.1150  0.1072
    1ION     NA69402   5.138  11.777   5.759  0.1724  0.2102  0.0278
    1ION     NA69403  22.430  25.843   6.410 -0.1867  0.5472 -0.0739
    1ION     NA69404  26.027  12.403   2.788 -0.5541  0.0284  0.2757
    1ION     NA69405  22.063   3.025   8.173 -0.0576 -0.0427 -0.0712
    1ION     NA69406  27.925   8.363   1.656  0.0774  0.2453  0.1519
    1ION     NA69407  17.700  26.149   8.827  0.1596 -0.0892  0.0579
    1ION     NA69408   3.848  25.668   9.169 -0.0730 -0.2329  0.1574
    1ION     NA69409   1.705  24.266   6.210  0.1062 -0.1483 -0.0871
    1ION     NA69410  27.123   8.276   2.920  0.0317  0.3819  0.1134
    1ION     NA69411  11.856  22.498   1.923 -0.2776 -0.1466 -0.1775
    1ION     NA69412  14.283  20.958   1.295  0.0504 -0.3085 -0.3588
    1ION     NA69413  17.651  14.554   1.049 -0.2458  0.1871 -0.1623
    1ION     NA69414   2.325   7.330   1.585 -0.0076  0.0166 -0.0753
    1ION     NA69415  18.149   4.645   1.106  0.0042  0.0002  0.2353
    1ION     NA69416  16.555   2.008   9.071 -0.1867 -0.2670 -0.1044
    1ION     NA69417   9.361  16.169   0.240 -0.0811 -0.3776 -0.1824
    1ION     NA69418  20.709  16.406   1.702 -0.0073  0.0230  0.1612
    1ION     NA69419  22.234  18.574   9.080  0.1111 -0.1576 -0.0913
    1ION     NA69420   3.662  11.213   6.247 -0.4014 -0.1008  0.0556
    1ION     NA69421  23.291  13.341   2.442 -0.0289 -0.0182  0.1375
    1ION     NA69422  18.526  10.999   7.152 -0.0481  0.0109  0.1497
    1ION     NA69423  14.687   8.333   8.680  0.0675 -0.1406 -0.1425
    1ION     NA69424  10.791   1.512   2.171 -0.1780 -0.2614  0.0287
    1ION     NA69425  11.813  15.025   7.285  0.0059  0.0003  0.2979
    1ION     NA69426  14.934  16.098   5.888 -0.5027  0.4783 -0.1384
    1ION     NA69427   2.091  10.568   9.390 -0.1192  0.3525  0.1938
    1ION     NA69428  12.934  15.164   0.566  0.0573 -0.0174 -0.2477
    1ION     NA69429  12.212   0.906   8.962  0.1510 -0.0163 -0.2036
    1ION     NA69430   8.755  20.377   2.508 -0.1620  0.0210 -0.0306
    1ION     NA69431  20.268  18.113   0.406 -0.1047 -0.2424 -0.0235
    1ION     NA69432  13.446   2.799   0.725 -0.0150  0.3792 -0.0811
    1ION     NA69433  22.157  23.592   2.974 -0.2008 -0.1771 -0.2057
    1ION     NA69434   8.171  17.600   7.365  0.1460  0.0130  0.0224
    1ION     NA69435   2.304   4.869   3.031 -0.4156  0.0819  0.2104
    1ION     NA69436  11.858  16.903   1.191  0.1373 -0.1339 -0.1804
    1ION     NA69437  10.341   1.862   3.658  0.3158  0.1628 -0.0398
    1ION     NA69438  26.618  29.027   1.905 -0.0870 -0.1136  0.0513
    1ION     NA69439  11.072   2.833   7.449  0.1638 -0.0375  0.0352
    1ION     NA69440  14.224  12.046   2.538 -0.0077  0.2227  0.2241
    1ION     NA69441  17.382  16.354   6.958 -0.1013 -0.0206 -0.1910
    1ION     NA69442   7.631   1.876   6.492 -0.0102 -0.1984  0.0022
    1ION     NA69443   6.473  25.789   1.216 -0.2041  0.1342 -0.0649
    1ION     NA69444  13.333  20.647   7.135 -0.0794  0.1646  0.0192
    1ION     NA69445  21.686  23.656   1.007 -0.1838  0.3208  0.0057
    1ION     NA69446   2.689  26.248   5.048 -0.2117  0.0003  0.0326
    1ION     NA69447   2.906  17.255   7.288  0.3385 -0.1922 -0.3298
    1ION     NA69448   2.446  28.418   0.503 -0.0161  0.0026 -0.2027
    1ION     NA69449  22.460  29.739   3.391  0.1266  0.1954  0.1890
    1ION     NA69450  27.601  28.212   8.770  0.0691  0.0541  0.1133
    1ION     NA69451  10.395  13.767   5.847  0.2828 -0.0488 -0.3570
    1ION     NA69452  29.423  28.584   0.676  0.2500  0.1703  0.2774
    1ION     NA69453  11.484   2.553   2.336 -0.1156  0.2533  0.3700
    1ION     NA69454  19.788  22.717   9.395 -0.1126  0.1105 -0.0175
    1ION     NA69455   2.453  27.879   6.081 -0.0615  0.0158  0.2060
    1ION     NA69456  23.866  28.309   2.173 -0.1064  0.0385 -0.2846
    1ION     NA69457  14.416  28.192   9.339  0.2452  0.0521  0.0426
    1ION     NA69458   9.189   9.698   1.164  0.1050  0.1706 -0.2154
    1ION     NA69459  21.254   6.370   7.930 -0.1421  0.0592  0.1288
    1ION     NA69460   5.654   3.933   7.002  0.0094 -0.0598 -0.1863
    1ION     NA69461  18.878  22.841   1.544  0.0829 -0.1040 -0.1044
    1ION     NA69462  23.747  10.439   8.333  0.3339 -0.3254  0.0895
    1ION     NA69463   7.665  24.911   0.194  0.0138  0.0830  0.0094
    1ION     NA69464  28.582  16.989   9.413  0.2303 -0.1095 -0.0177
    1ION     NA69465  20.258  28.017   8.827 -0.0439 -0.1234  0.2019
    1ION     NA69466  20.672   6.225   2.584 -0.1693 -0.0966 -0.2410
    1ION     NA69467   1.376  11.548   0.381 -0.1760 -0.0041 -0.1413
    1ION     NA69468  18.873  11.699   1.115  0.1329  0.1939  0.1706
    1ION     NA69469   7.927   4.361   8.835 -0.0011  0.2984 -0.0660
    1ION     NA69470  25.877   6.928   1.174 -0.1851 -0.3393  0.2505
    1ION     NA69471  26.198  12.321   0.421 -0.0102 -0.0753  0.0292
    1ION     NA69472   1.380   4.976   0.652  0.3535  0.0806 -0.2059
    1ION     NA69473  22.220  24.408   1.741  0.1539  0.0016 -0.4005
    1ION     NA69474   9.661  14.894   0.136 -0.2079 -0.0766  0.3052
    1ION     NA69475   0.259   8.992   1.447  0.0893 -0.0038 -0.0348
    1ION     NA69476  18.992  21.567   1.521  0.0984 -0.1767  0.2033
    1ION     NA69477   6.467  20.751   5.801  0.2372  0.0069  0.0920
    1ION     NA69478   9.190  13.753   1.410  0.0781  0.0988  0.1792
    1ION     NA69479   5.396  10.470   8.778  0.3009 -0.1613  0.2941
    1ION     NA69480  16.712  17.301   6.142  0.0725 -0.0098 -0.0935
    1ION     NA69481  16.190  27.262   6.700  0.0426  0.1860  0.2773
    1ION     NA69482  27.020  24.563   0.690 -0.1685  0.3404  0.0350
    1ION     NA69483  25.919  17.043   7.107 -0.0510  0.2671 -0.1462
    1ION     NA69484   3.050   6.157   1.711 -0.2135  0.1055  0.0659
    1ION     NA69485  18.461  15.087   6.351 -0.1858 -0.0453 -0.0841
    1ION     NA69486  13.345   3.482   3.752 -0.0918 -0.3191  0.1143
    1ION     NA69487  27.446  12.335   2.717  0.2511  0.0288 -0.1386
    1ION     NA69488  20.164  15.151   7.865  0.0185 -0.0671  0.0680
    1ION     NA69489  10.893   4.715   2.225 -0.1225  0.0955 -0.2966
    1ION     NA69490  25.183   5.323   7.241 -0.2219 -0.1701  0.3217
    1ION     NA69491  21.109   3.732   2.533 -0.4383  0.0737 -0.1862
    1ION     NA69492  18.500  10.239   3.047  0.2638  0.0360 -0.2626
    1ION     NA69493   1.434   9.326   6.198  0.0080  0.1294 -0.0812
    1ION     NA69494  29.831  21.565   6.266  0.6032 -0.2442  0.0256
    1ION     NA69495  23.902   1.306   7.254 -0.1655 -0.1204  0.0401
    1ION     NA69496   9.904  11.558   7.399  0.0714 -0.1625 -0.1146
    1ION     NA69497  11.953  21.089   0.291 -0.3022  0.1914  0.0154
    1ION     NA69498  16.792   9.289   8.631 -0.3070 -0.1454 -0.2038
    1ION     NA69499   8.434   3.098   9.515 -0.1538  0.3776 -0.1322
    1ION     NA69500  28.749  12.385   6.673  0.0023  0.1882 -0.1388
    1ION     NA69501   1.875  19.716   7.736 -0.0024 -0.3283 -0.0656
    1ION     NA69502  23.345  21.750   1.072  0.1026 -0.1226 -0.0559
    1ION     NA69503   8.845  21.990   5.644  0.1352  0.0118 -0.0626
    1ION     NA69504  29.136  17.566   6.216 -0.2253  0.2207 -0.0684
    1ION     NA69505  18.004   8.881   2.641 -0.2609  0.1727  0.1095
    1ION     NA69506  10.999   7.913   0.746 -0.0761  0.3327 -0.1467
    1ION     NA69507  19.198  16.348   8.358  0.2268  0.1164 -0.2304
    1ION     NA69508  25.771   4.498   8.108 -0.0559  0.0465  0.2009
    1ION     NA69509  23.332  13.186   7.902  0.1376  0.0949 -0.0849
    1ION     NA69510  21.556  26.283   6.236  0.0877 -0.3569 -0.0043
    1ION     NA69511  18.376  19.784   6.220  0.3140 -0.1029  0.0632
    1ION     NA69512  11.654  28.129   7.994 -0.0758 -0.0811  0.0233
    1ION     NA69513  19.237  17.381   8.632 -0.0461  0.0508 -0.1412
    1ION     NA69514  21.298  13.528   0.282  0.0389  0.0438  0.2253
    1ION     NA69515  25.249  10.527   6.837  0.1589  0.0832 -0.1842
    1ION     NA69516   2.077   3.068   6.757  0.0759 -0.0793 -0.0681
    1ION     NA69517  25.207  28.160   9.373  0.1195  0.0650  0.1106
    1ION     NA69518  21.272   9.202   7.100  0.0872  0.1558  0.0021
    1ION     NA69519   4.350  16.271   7.234 -0.3258 -0.0865  0.0017
    1ION     NA69520  24.039   5.955   4.001 -0.1158 -0.0644 -0.0695
    1ION     NA69521  17.978  26.509   0.658  0.2342  0.0007 -0.1987
    1ION     NA69522  14.664  26.326   9.457  0.0054  0.0497  0.0028
    1ION     NA69523   0.944  20.924   2.609  0.3233 -0.3100 -0.2982
    1ION     NA69524  12.649   1.364   3.292 -0.0943  0.0687  0.3935
    1ION     NA69525  11.662  21.309   1.082  0.0550  0.2133 -0.0396
    1ION     NA69526   8.690  29.692   9.356  0.1154  0.0924  0.1376
    1ION     NA69527   5.635  17.669   6.334  0.2962  0.1721 -0.1926
    1ION     NA69528   7.895  29.753   0.302  0.1306  0.0124 -0.1454
    1ION     NA69529   8.104   8.464   8.045 -0.0829  0.0230  0.3069
    1ION     NA69530  16.579  11.560   1.300 -0.1366 -0.2473  0.1222
    1ION     NA69531  18.498   9.126   2.850 -0.0215 -0.0276  0.1280
    1ION     NA69532   8.410   1.349   3.270  0.1791 -0.3683 -0.0202
    1ION     NA69533   7.140   0.406   1.730 -0.3111 -0.0467 -0.2315
    1ION     NA69534   6.617  24.069   9.399 -0.4609 -0.1458  0.3265
    1ION     NA69535  16.435   8.330   7.632 -0.1080  0.2432  0.0287
    1ION     NA69536   6.920  27.323   2.324  0.0840 -0.4352 -0.2604
    1ION     NA69537   6.737  14.504   9.029  0.0625  0.0138 -0.3314
    1ION     NA69538   9.729   6.927   6.823 -0.0301 -0.1948 -0.0172
    1ION     NA69539  16.869  25.200   5.882  0.0584  0.0616 -0.0196
    1ION     NA69540  25.754   0.565   7.548 -0.0249  0.0141 -0.1230
    1ION     NA69541   2.183   8.525   1.274 -0.1383  0.1210 -0.1036
    1ION     NA69542  19.070  19.569   1.950 -0.0320  0.2299 -0.1711
    1ION     NA69543  17.373  15.201   1.781 -0.0425  0.2298  0.0561
    1ION     NA69544   4.582   2.530   2.723  0.3358 -0.3384 -0.1207
    1ION     NA69545  14.554  14.909   0.647 -0.1583 -0.0488 -0.0697
    1ION     NA69546  25.782  27.859   2.113  0.1573  0.1929  0.1225
    1ION     NA69547   6.507  10.985   9.478  0.0433  0.1047 -0.0248
    1ION     NA69548  22.295  15.969   6.449 -0.1562  0.1863 -0.0083
    1ION     NA69549   0.159  20.774   2.930 -0.0171 -0.0255 -0.0006
    1ION     NA69550  22.016  23.273   9.162  0.0655 -0.2241 -0.2169
    1ION     NA69551  23.330   3.491   9.145  0.1962 -0.3525  0.0293
    1ION     NA69552   5.794   0.703   1.812  0.4457 -0.1335 -0.2007
    1ION     NA69553  22.202   4.419   1.895 -0.2790 -0.0288 -0.1048
    1ION     NA69554  22.405  20.063   0.924 -0.0201 -0.3517 -0.3772
    1ION     NA69555   2.295  23.772   1.451 -0.3043  0.0850  0.1044
    1ION     NA69556  10.950  14.699   7.980 -0.0090 -0.1960  0.0279
    1ION     NA69557  22.505  12.993   1.677 -0.1036 -0.0676 -0.0070
    1ION     NA69558  17.449  22.962   5.488  0.0854 -0.2353 -0.0548
    1ION     NA69559  28.922   3.572   3.195 -0.0126  0.1787  0.2601
    1ION     NA69560   5.553  21.397   6.408 -0.1206 -0.1537 -0.1498
    1ION     NA69561   9.256  18.799   2.798 -0.0101 -0.2625 -0.0814
    1ION     NA69562   0.791   4.916   2.147  0.3522 -0.0762 -0.0543
    1ION     NA69563  27.023  16.411   8.671 -0.0634  0.0453  0.2724
    1ION     NA69564   7.003  18.405   8.296  0.1046 -0.1227 -0.0767
    1ION     NA69565   6.237  23.688   5.792  0.0226 -0.0306 -0.1879
    1ION     NA69566  25.626   3.707   0.735  0.0781  0.2488  0.3174
    1ION     NA69567  13.547  15.237   6.176 -0.3495 -0.0392  0.1435
    1ION     NA69568  17.254   1.761   0.759 -0.0285 -0.0069  0.1982
    1ION     NA69569   4.594  19.918   2.559 -0.2339  0.0724 -0.1628
    1ION     NA69570  14.621   6.206   2.122  0.5700 -0.2198  0.1561
    1ION     NA69571  25.369   1.498   1.687 -0.1163  0.1933  0.2605
    1ION     NA69572  17.518  20.371   7.198 -0.1931  0.0884 -0.1613
    1ION     NA69573  21.056  17.126   6.018  0.1314  0.0552  0.0473
    1ION     NA69574  25.480  23.308   1.394  0.2630  0.0529 -0.0486
    1ION     NA69575  13.681  20.555   9.058  0.0678  0.1531  0.3358
    1ION     NA69576  17.564   2.813   9.320  0.3271  0.0566  0.0430
    1ION     NA69577  10.533  11.456   1.009 -0.0441  0.0594  0.0888
    1ION     NA69578  24.462  15.044   0.994  0.1796  0.0136 -0.1446
    1ION     NA69579  13.390   7.628   3.233 -0.1104  0.1251 -0.3844
    1ION     NA69580   1.541  18.795   2.216  0.1879  0.0036 -0.1345
    1ION     NA69581  14.756  24.747   8.562 -0.1849  0.1436 -0.3040
    1ION     NA69582  21.824   4.172   2.697 -0.0972  0.1482  0.1770
    1ION     NA69583  28.197  14.457   1.349 -0.2094 -0.2482 -0.1675
    1ION     NA69584   0.173  17.768   9.041  0.0214 -0.1386 -0.0780
    1ION     NA69585  18.709  13.410   8.155  0.2610  0.2824 -0.0308
    1ION     NA69586   5.521  27.401   1.117  0.0442  0.0832 -0.1113
    1ION     NA69587  13.974   5.429   0.903 -0.1133  0.1423 -0.0756
    1ION     NA69588  15.452   3.053   8.593  0.0079 -0.3154 -0.0397
    1ION     NA69589  16.821  13.179   2.502 -0.2473  0.2276 -0.1778
    1ION     NA69590  14.133  12.597   6.730 -0.0324  0.1211  0.1599
    1ION     NA69591  18.514  15.900   6.660  0.0453 -0.1296 -0.0534
    1ION     NA69592  25.372   3.802   8.886  0.0569  0.0926  0.1858
    1ION     NA69593  18.788  18.182   7.548  0.4111 -0.2975  0.2268
    1ION     NA69594  25.165  20.062   6.847  0.1554  0.0583 -0.3442
    1ION     NA69595  13.269   1.222   1.527 -0.0349 -0.1077 -0.1381
    1ION     NA69596  16.058  23.006   0.305 -0.0883 -0.0112 -0.2713
    1ION     NA69597  28.507  24.187   2.571 -0.0456 -0.2098 -0.2564
    1ION     NA69598  18.754   7.623   3.156  0.2468  0.0049  0.0402
    1ION     NA69599   1.879  10.944   8.149 -0.0588  0.0759 -0.3168
    1ION     NA69600   7.816  12.182   1.376 -0.1098 -0.1812  0.0588
    1ION     NA69601  12.486  12.663   2.671  0.1542 -0.2101 -0.0206
    1ION     NA69602   0.434   1.011   7.327 -0.3269 -0.0271  0.0761
    1ION     NA69603  22.981   1.167   9.486  0.1904 -0.0183  0.0967
    1ION     NA69604   1.494   1.007   0.458  0.1349  0.3289  0.0181
    1ION     NA69605  11.562  13.683   6.025  0.1196  0.1194  0.0178
    1ION     NA69606  16.054  26.416   8.902 -0.0304  0.2405  0.2714
    1ION     NA69607   0.213   4.306   1.826 -0.1631  0.2314 -0.0948
    1ION     NA69608   1.388   5.133   7.685 -0.1117 -0.2287 -0.1145
    1ION     NA69609   8.871  29.152   3.132  0.5543 -0.0252 -0.2246
    1ION     NA69610  28.763  13.557   1.871 -0.0467 -0.0309 -0.0508
    1ION     NA69611   4.569  27.865   8.117  0.2731 -0.2883  0.1357
    1ION     NA69612  28.126  25.321   1.533  0.0316  0.2386 -0.0757
    1ION     NA69613  11.338   6.287   7.531  0.2595 -0.1243 -0.0719
    1ION     NA69614  23.503   2.235   7.194 -0.1611 -0.2486  0.1311
    1ION     NA69615  10.184  20.297   2.232 -0.0580  0.0984 -0.1040
    1ION     NA69616  22.315   8.591   2.673  0.2203 -0.3680  0.0174
    1ION     NA69617  12.167  20.576   1.755 -0.0126  0.3000  0.1066
    1ION     NA69618   0.299  22.288   6.844 -0.1257 -0.1631 -0.3333
    1ION     NA69619   1.967   9.206   8.309  0.2391 -0.2809 -0.1470
    1ION     NA69620   0.235   0.191   7.853 -0.0425  0.0659 -0.3008
    1ION     NA69621  14.535  11.218   6.830 -0.0489 -0.0273 -0.1396
    1ION     NA69622  15.575  13.947   8.583 -0.0299  0.1096  0.2820
    1ION     NA69623   5.591  13.256   8.371 -0.2559 -0.3301 -0.3661
    1ION     NA69624   9.720  22.362   7.415  0.2497 -0.2127  0.2422
    1ION     NA69625   3.380   9.386   2.679  0.1004  0.0700  0.1129
    1ION     NA69626  14.786  24.005   8.860 -0.3604 -0.0818  0.0059
    1ION     NA69627  28.697   8.853   6.558  0.2943  0.0051  0.1468
    1ION     NA69628  10.700  24.970   7.828  0.1462  0.1350  0.2835
    1ION     NA69629  19.122  18.287   2.040  0.1739  0.1997  0.0804
    1ION     NA69630  23.596   7.051   1.600  0.3278  0.0817  0.3293
    1ION     NA69631  29.803  19.706   8.355  0.0940 -0.3599 -0.0566
    1ION     NA69632   2.589  12.617   2.663  0.1841 -0.0203  0.0211
    1ION     NA69633   6.124  15.641   6.809 -0.2401  0.0468 -0.1024
    1ION     NA69634   6.908   2.386   7.247 -0.1274 -0.1082  0.3444
    1ION     NA69635   0.524  26.193   1.095 -0.1337 -0.0667  0.0555
    1ION     NA69636  16.934  28.973   1.657  0.2024 -0.1999  0.0367
    1ION     NA69637  11.726  18.828   6.466 -0.1425 -0.1416 -0.1300
    1ION     NA69638  20.031  12.497   7.291  0.2995  0.1614 -0.1935
    1ION     NA69639   0.722  13.927   7.561  0.2431 -0.0982  0.2085
    1ION     NA69640   4.951  26.881   5.690 -0.1938 -0.0132 -0.0318
    1ION     NA69641   5.681   8.311   7.717  0.2710 -0.0040  0.1545
    1ION     NA69642  25.635  20.187   0.211  0.1224  0.2393 -0.1402
    1ION     NA69643  11.675  22.577   9.173  0.3541 -0.0812  0.2744
    1ION     NA69644   3.464  24.477   8.615  0.1383 -0.0584  0.2208
    1ION     NA69645  22.934   8.108   8.718 -0.0178  0.0610 -0.2936
    1ION     NA69646  25.524  15.054   2.743 -0.1995 -0.2725  0.1296
    1ION     NA69647  17.123   4.677   3.958  0.1300  0.2752 -0.1943
    1ION     NA69648   6.467   6.542   1.835 -0.0241  0.2320 -0.0871
    1ION     NA69649  11.094   0.629   1.440  0.0122 -0.0721 -0.1794
    1ION     NA69650  11.630  20.252   7.690  0.2722 -0.1194  0.1106
    1ION     NA69651  23.125   6.257   3.770  0.0629  0.3837 -0.2447
    1ION     NA69652   1.558  17.738   8.434 -0.0386  0.2829 -0.0777
    1ION     NA69653  13.193  15.132   2.588  0.2228  0.4345  0.2890
    1ION     NA69654   4.558  14.556   6.485  0.0409  0.1515 -0.2703
    1ION     NA69655  14.185  27.244   9.114  0.1444  0.1510  0.0822
    1ION     NA69656  14.315  23.854   6.310 -0.0846 -0.2383  0.1289
    1ION     NA69657  21.391   6.974   9.117  0.0153  0.2562 -0.4238
    1ION     NA69658  17.333  20.550   1.893  0.2104 -0.3979  0.0736
    1ION     NA69659   0.853   6.165   2.637 -0.1331 -0.1554  0.0190
    1ION     NA69660  19.839  26.657   2.190  0.2017  0.0749 -0.1362
    1ION     NA69661   5.873  12.796   2.325 -0.0739  0.0716 -0.0795
    1ION     NA69662   6.515  16.733   1.400 -0.1017 -0.0827 -0.1302
    1ION     NA69663  24.383  26.968   3.075 -0.0915 -0.2495 -0.0473
    1ION     NA69664   0.876   1.654   7.332  0.2033  0.1485  0.0598
    1ION     NA69665   5.051   6.522   6.283 -0.1099 -0.0072  0.0672
    1ION     NA69666  26.958   9.598   9.461 -0.0509 -0.0065 -0.1066
    1ION     NA69667  23.875   4.547   7.084  0.0645  0.0866  0.1267
    1ION     NA69668   2.132  21.077   6.404  0.2192  0.0732 -0.2679
    1ION     NA69669   1.472   9.897   7.736  0.3331 -0.0079 -0.0467
    1ION     NA69670  17.035   5.227   1.762 -0.1709 -0.1288  0.0416
    1ION     NA69671  17.728  19.358   7.271 -0.1492  0.2260  0.3131
    1ION     NA69672  29.807   3.754   1.095  0.0832 -0.0937  0.2506
    1ION     NA69673  15.020  20.656   1.597 -0.0082  0.0034  0.0644
    1ION     NA69674  12.621  25.438   0.032 -0.1917 -0.3083  0.0798
    1ION     NA69675  27.796  13.805   1.729  0.0760 -0.0593  0.1889
    1ION     NA69676  29.857   7.117   8.705 -0.0787  0.2772 -0.0429
    1ION     NA69677   7.112  17.198   0.723 -0.2845  0.0269  0.0228
    1ION     NA69678  16.114   2.658   2.374 -0.0657 -0.0895 -0.2796
    1ION     NA69679   9.963  12.550   7.789  0.0307 -0.3404  0.1928
    1ION     NA69680   3.496  28.256   2.024 -0.0256  0.3228  0.1707
    1ION     NA69681  10.101   6.822   8.846 -0.3235  0.2047  0.3705
    1ION     NA69682   0.173  25.694   7.087 -0.0611 -0.2390 -0.1757
    1ION     NA69683  11.767   9.966   0.997  0.0801  0.0988  0.0784
    1ION     NA69684   7.835  29.111   8.624 -0.2621  0.2721  0.4294
    1ION     NA69685  25.501  11.769   7.837 -0.0465  0.1894  0.3902
    1ION     NA69686  15.324  22.656   5.775  0.2138 -0.0103 -0.1274
    1ION     NA69687  29.844  24.042   2.441 -0.0312  0.0303  0.0210
    1ION     NA69688  28.182  14.037   8.774  0.4946  0.0638 -0.0172
    1ION     NA69689   3.329   6.790   2.924 -0.1626  0.0390 -0.0849
    1ION     NA69690   2.029   0.821   7.744  0.0517 -0.0087 -0.1695
    1ION     NA69691  19.991  10.878   2.810 -0.2037 -0.0866  0.0447
    1ION     NA69692  10.435  14.326   7.260  0.0295 -0.1369 -0.0467
    1ION     NA69693   4.217  23.392   0.379 -0.2130  0.1239  0.1504
    1ION     NA69694  23.125  10.280   0.730  0.0089  0.2948  0.1027
    1ION     NA69695   4.881  25.283   6.490 -0.3717  0.1374  0.0183
    1ION     NA69696  26.256   1.752   9.388  0.0034  0.0641 -0.2656
    1ION     NA69697   7.021  21.944   7.438  0.2568 -0.3280  0.1735
    1ION     NA69698   3.906  22.458   9.213 -0.1332 -0.1783  0.3284
    1ION     NA69699  24.212  17.278   0.789  0.0362 -0.0110  0.0697
    1ION     NA69700  28.272  16.826   0.243  0.0852  0.0943 -0.1124
    1ION     NA69701  26.807  16.373   6.700 -0.1357  0.2302  0.4384
    1ION     NA69702  16.069   0.501   3.989  0.0976 -0.0916  0.0996
    1ION     NA69703  14.538   9.619   7.321 -0.0337  0.1373  0.4692
    1ION     NA69704  18.982   4.314   7.748  0.0727 -0.4683  0.2309
    1ION     NA69705   5.864  25.294   8.937 -0.0860 -0.0125 -0.2736
    1ION     NA69706  22.809   4.294   2.594  0.0507  0.0866 -0.3181
    1ION     NA69707  16.158   6.488   2.698  0.2521 -0.2298  0.0368
    1ION     NA69708  17.396  14.142   6.847  0.3267  0.2552 -0.2409
    1ION     NA69709   1.419  17.065   2.584  0.1517  0.1314 -0.2792
    1ION     NA69710   1.122   1.524   9.434 -0.0356 -0.4184 -0.0194
    1ION     NA69711   2.296   0.892   6.451  0.0262 -0.0252 -0.1418
    1ION     NA69712   9.117   2.819   8.823  0.0014 -0.1418  0.0827
    1ION     NA69713  20.425   6.747   8.978 -0.3623 -0.1477 -0.1630
    1ION     NA69714  27.917  20.900   1.361  0.3865 -0.1845 -0.2563
    1ION     NA69715   2.535  16.609   6.808 -0.1329  0.1962  0.2722
    1ION     NA69716   3.847  28.394   8.295  0.2924  0.0180  0.1167
    1ION     NA69717  28.607  19.059   1.222  0.2937 -0.2135 -0.2380
    1ION     NA69718  22.211   8.977   7.076 -0.1238  0.1752 -0.1091
    1ION     NA69719  26.443  23.655   6.784  0.1559 -0.0320 -0.0104
    1ION     NA69720   2.432  22.860   9.292 -0.1874  0.1635 -0.1621
    1ION     NA69721  18.455  13.671   7.223 -0.3565 -0.2126  0.1537
    1ION     NA69722  13.711  27.193   5.993 -0.3595  0.1549 -0.0087
    1ION     NA69723   7.934   0.566   7.946 -0.1162  0.0167  0.1278
    1ION     NA69724  17.814   1.621   0.920  0.0313  0.1065 -0.2226
    1ION     NA69725  12.420   0.233   3.279 -0.1108 -0.2327 -0.0093
    1ION     NA69726  14.717  25.780   2.282 -0.0744 -0.2426 -0.0957
    1ION     NA69727  10.037  17.636   0.718 -0.0763 -0.1455  0.0981
    1ION     NA69728  24.616   5.418   2.509  0.4192 -0.1337 -0.0116
    1ION     NA69729  25.675   7.526   0.136  0.4573  0.1803 -0.3412
    1ION     NA69730   2.605  18.760   8.773  0.4012  0.1468  0.1784
    1ION     NA69731  26.300   1.648   6.690 -0.0055  0.4990  0.1340
    1ION     NA69732  18.172  15.243   2.339  0.0358 -0.2656  0.0317
    1ION     NA69733  21.463  17.639   7.135  0.1756  0.2755  0.2936
    1ION     NA69734   1.608  20.482   2.271 -0.4163  0.0729 -0.0859
    1ION     NA69735  24.730   9.334   7.340 -0.2139  0.0544  0.0216
    1ION     NA69736  15.409  18.506   5.585  0.1885 -0.4775  0.0918
    1ION     NA69737  10.302   9.509   8.326 -0.0191 -0.1390 -0.1438
    1ION     NA69738  26.228  19.544   0.114 -0.0079 -0.2418 -0.0324
    1ION     NA69739  18.886  24.103   5.674  0.0823  0.0149 -0.1441
    1ION     NA69740  12.849  19.617   6.418  0.1509 -0.2589 -0.2070
    1ION     NA69741   3.939  19.370   1.939  0.0688 -0.0396 -0.1120
    1ION     NA69742   7.965  19.029   9.122  0.1918 -0.1635 -0.0573
    1ION     NA69743  20.126  26.516   8.542 -0.0665  0.2078 -0.3091
    1ION     NA69744  20.594  28.657   6.668  0.0024 -0.1396  0.0208
    1ION     NA69745   2.561  14.049   8.594 -0.0251 -0.3372  0.2794
    1ION     NA69746   6.623  10.468   6.857 -0.2115  0.3171 -0.0190
    1ION     NA69747  13.418   3.395   2.622 -0.0201 -0.1597  0.0078
    1ION     NA69748   8.674  24.886   0.784 -0.1334 -0.2755 -0.2797
    1ION     NA69749  20.283   5.437   9.406 -0.0996  0.0659 -0.0097
    1ION     NA69750   0.495  21.610   6.293  0.5614 -0.1664  0.1633
    1ION     NA69751  14.598  22.198   8.480  0.1690  0.0484  0.0414
    1ION     NA69752   5.662  16.256   6.975  0.5857  0.2194  0.3484
    1ION     NA69753   8.939  22.139   1.312 -0.1031  0.2295  0.3192
    1ION     NA69754  16.365  14.178   9.272  0.0035  0.1608  0.1829
    1ION     NA69755  21.024  12.099   8.709  0.2518  0.1229 -0.0032
    1ION     NA69756  29.796   9.684   1.531 -0.0305  0.1504  0.0028
    1ION     NA69757   3.173   7.722   0.952  0.0282 -0.0888  0.0820
    1ION     NA69758   3.226  15.691   2.681  0.0728 -0.0146 -0.1338
    1ION     NA69759  19.245  27.933   8.710  0.2960  0.1022  0.0928
    1ION     NA69760  29.325  17.407   1.543  0.0655 -0.0027  0.0098
    1ION     NA69761  19.204  23.521   8.199  0.2054 -0.1103  0.1486
    1ION     NA69762  16.831  22.241   5.196 -0.1017 -0.1303 -0.0820
    1ION     NA69763  14.872  10.629   1.335 -0.0919 -0.0014 -0.0089
    1ION     NA69764   5.473  15.455   2.574  0.0672 -0.1333  0.0565
    1ION     NA69765  21.389  20.899   2.211  0.1215 -0.1522  0.1981
    1ION     NA69766  26.523  25.991   0.963  0.0697  0.4115  0.0542
    1ION     NA69767  19.862  25.267   5.654 -0.0123  0.0122  0.1720
    1ION     NA69768   0.722  25.184   5.860 -0.0430  0.2926 -0.4384
    1ION     NA69769  11.903  21.494   6.875  0.1782  0.0677 -0.3107
    1ION     NA69770  24.587  11.307   2.711 -0.1861 -0.0247 -0.0417
    1ION     NA69771  19.237  14.577   6.865 -0.0277 -0.4256 -0.0391
    1ION     NA69772  15.517  19.430   5.455 -0.1434 -0.1479 -0.0999
    1ION     NA69773  24.284   6.045   2.130  0.2153  0.5304 -0.0552
    1ION     NA69774   5.647  24.060   8.436 -0.1916  0.0648 -0.1315
    1ION     NA69775  13.833  24.307   9.125  0.0427 -0.3375  0.0423
    1ION     NA69776  19.861   1.009   1.544 -0.0299  0.2480 -0.1035
    1ION     NA69777   6.481  26.629   7.199  0.1960  0.1892 -0.1077
    1ION     NA69778  26.175  26.390   2.918  0.1111 -0.2666 -0.3118
    1ION     NA69779  10.108  25.828   7.833 -0.1848 -0.0929  0.0115
    1ION     NA69780  10.489  18.536   2.661 -0.6126  0.2918 -0.1918
    1ION     NA69781   6.493   9.588   2.860 -0.1401 -0.0590  0.0948
    1ION     NA69782   7.823   2.931   6.606  0.1216 -0.2560  0.1945
    1ION     NA69783   7.920  25.982   8.556 -0.0700 -0.2921 -0.1536
    1ION     CL69784  10.035   5.076   3.503 -0.0475 -0.0406 -0.0868
    1ION     CL69785   1.061   1.011   9.278 -0.2334  0.1158 -0.0198
    1ION     CL69786   1.772   0.724   0.132 -0.1766 -0.0446 -0.0583
    1ION     CL69787  23.795   4.039   1.453 -0.0051 -0.3063 -0.0535
    1ION     CL69788  23.065  11.290   8.813 -0.2492  0.0228  0.0584
    1ION     CL69789   3.431  26.966   6.192 -0.2506 -0.3188 -0.0457
    1ION     CL69790  13.543  13.940   1.520 -0.0007 -0.0130  0.2743
    1ION     CL69791  29.380   1.074   0.123  0.0461 -0.3729 -0.3742
    1ION     CL69792   9.960  11.194   0.395  0.1234  0.1245  0.0182
    1ION     CL69793  14.988   7.042   9.516  0.1285 -0.1179 -0.1023
    1ION     CL69794  21.299  29.020   8.297 -0.2703 -0.0815 -0.4144
    1ION     CL69795  15.775  23.389   0.499 -0.1252 -0.0336 -0.0687
    1ION     CL69796  28.087  10.538   0.050  0.1419 -0.1506 -0.3644
    1ION     CL69797  22.071  14.469   1.087 -0.0162 -0.1024 -0.3895
    1ION     CL69798  28.196  25.370   9.399  0.0121  0.1802  0.0599
    1ION     CL69799  17.445   9.623   8.212  0.0506  0.1891 -0.0429
    1ION     CL69800  18.874  17.032   8.512 -0.3146 -0.0991  0.0834
    1ION     CL69801  19.000   7.080   3.219  0.0176 -0.1353  0.3367
    1ION     CL69802  22.346   4.383   2.786  0.0903 -0.1815 -0.0307
    1ION     CL69803  17.149   2.171   0.538  0.0502 -0.2567 -0.1831
    1ION     CL69804  14.620   8.439   8.172 -0.1532  0.0006 -0.0156
    1ION     CL69805   6.959   3.817   7.393  0.0157  0.0617 -0.2873
    1ION     CL69806   8.283  18.183   0.376  0.2557 -0.1397 -0.1419
    1ION     CL69807  25.465   0.414   7.927  0.0038  0.2600  0.0905
    1ION     CL69808  19.336  23.966   1.133  0.1105 -0.0754  0.2856
    1ION     CL69809   8.758  11.067   1.850 -0.0350  0.0418  0.1499
    1ION     CL69810   0.570  18.186   7.011  0.3167 -0.2301 -0.0627
    1ION     CL69811  21.579   9.122   7.882  0.0212 -0.1269  0.1383
    1ION     CL69812  13.902  14.504   9.001 -0.2134  0.0407  0.1347
    1ION     CL69813   6.392  29.033   1.215 -0.0634 -0.2609  0.2369
    1ION     CL69814  21.560   6.166   8.311 -0.1078 -0.0785  0.1898
    1ION     CL69815  22.909   5.432   2.652 -0.0347  0.0659 -0.1629
    1ION     CL69816  10.306  12.562   7.405 -0.1310 -0.1139 -0.0856
    1ION     CL69817  11.670  20.666   1.618  0.6102 -0.1155 -0.0500
    1ION     CL69818  26.794   7.033   7.899  0.0719  0.1622 -0.0131
    1ION     CL69819  24.892   0.011   1.656  0.1155  0.0858  0.2721
    1ION     CL69820  16.887   0.167   0.032  0.0658  0.0566 -0.1113
    1ION     CL69821  17.897  15.170   1.526 -0.1217  0.2307 -0.0032
    1ION     CL69822  10.879  29.074   8.243  0.2270  0.2446  0.1359
    1ION     CL69823   7.608  11.563   2.164 -0.0717  0.0368  0.0789
    1ION     CL69824  27.062  22.237   2.300 -0.2302  0.2589 -0.0275
    1ION     CL69825   7.942  11.602   7.336  0.1257  0.1636  0.3036
    1ION     CL69826  29.545  17.760   8.782  0.1913  0.0882  0.1370
    1ION     CL69827  10.193  24.863   8.024 -0.1267  0.3208 -0.0070
    1ION     CL69828  29.481  19.944   0.869 -0.0836 -0.1515 -0.3529
    1ION     CL69829  18.519  18.391   7.158 -0.2898 -0.0468  0.1546
    1ION     CL69830  28.562  19.406   1.694  0.1057  0.1583  0.2422
    1ION     CL69831  14.397  21.934   0.090 -0.1299  0.2611 -0.1068
    1ION     CL69832   3.740  22.621   0.141 -0.2506  0.1217  0.5070
    1ION     CL69833  24.646  12.732   7.857 -0.0536  0.0419  0.0828
    1ION     CL69834  10.057  23.161   6.630  0.0477 -0.1726  0.0581
    1ION     CL69835   3.169  12.614   0.297  0.1682 -0.4995  0.0057
    1ION     CL69836  23.588  28.537   8.362 -0.1035  0.1580 -0.2043
    1ION     CL69837  17.118  24.733   0.272 -0.0010 -0.1468  0.2112
    1ION     CL69838   1.215  10.362   7.836  0.0858  0.0692 -0.1007
    1ION     CL69839   1.167  18.711   1.846 -0.3567  0.1237 -0.1851
    1ION     CL69840  18.121  19.088   9.279 -0.2924 -0.1502 -0.5631
    1ION     CL69841  14.711  11.101   1.699  0.1029  0.1288 -0.0277
    1ION     CL69842  26.812  11.957   2.414 -0.0343 -0.0601  0.2043
    1ION     CL69843  13.793  27.345   9.411  0.0714  0.2018  0.0085
    1ION     CL69844  21.263   8.120   1.926 -0.3235 -0.0379 -0.2057
    1ION     CL69845  24.986  12.010   7.911 -0.1585 -0.2054  0.1572
    1ION     CL69846  15.897   6.641   3.216  0.0942  0.0237 -0.0025
    1ION     CL69847   9.241   2.701   1.562 -0.0111 -0.0425 -0.1235
    1ION     CL69848  14.248  28.164   0.701  0.1608  0.0550  0.0170
    1ION     CL69849  18.154  13.554   7.608 -0.1803  0.4154  0.0854
    1ION     CL69850  12.576   7.115   1.109  0.0369  0.1250 -0.0252
    1ION     CL69851  11.752  12.349   9.140  0.0726  0.0528 -0.2274
    1ION     CL69852   1.669   0.027   7.387  0.0740 -0.2716  0.0482
    1ION     CL69853  14.636  16.427   0.590 -0.3032 -0.2085 -0.0896
    1ION     CL69854  19.060   4.249   3.171  0.1602  0.0594 -0.3445
    1ION     CL69855  25.383  20.294   2.157  0.1000 -0.1264 -0.0013
    1ION     CL69856   6.191  14.158   7.019  0.1952  0.3292  0.1079
    1ION     CL69857   2.548   8.362   2.449 -0.0128  0.0854  0.1347
    1ION     CL69858   1.480  28.925   0.304 -0.3541 -0.0843 -0.3969
    1ION     CL69859  28.201   2.152   1.203  0.1436  0.1257  0.0469
    1ION     CL69860   8.180  29.573   9.446 -0.0648 -0.1782  0.1348
    1ION     CL69861   1.692  18.233   8.461 -0.2765  0.2711 -0.0214
    1ION     CL69862  26.852  18.460   7.841 -0.1982  0.3105  0.2642
    1ION     CL69863  14.128  14.952   1.180  0.4541  0.1683  0.2444
    1ION     CL69864  18.735  16.178   8.428 -0.1050 -0.0799  0.0592
    1ION     CL69865  20.432  15.541   8.031  0.0255  0.2593  0.3222
    1ION     CL69866   8.116  15.566   6.988 -0.0451  0.0913  0.1069
    1ION     CL69867   8.242  24.721   1.019  0.0547  0.2494 -0.2585
    1ION     CL69868   5.310   4.911   8.087 -0.2310  0.2929 -0.1978
    1ION     CL69869  19.753  27.900   8.862 -0.1760 -0.2465 -0.0507
    1ION     CL69870   5.646  29.152   7.417 -0.1203 -0.1585  0.0528
    1ION     CL69871  27.014  17.908   0.144  0.0289  0.0434 -0.2008
    1ION     CL69872  15.604  26.179   9.001  0.2011  0.1339 -0.0304
    1ION     CL69873  13.292  17.414   2.209 -0.4283  0.1266 -0.1097
    1ION     CL69874  22.969   3.860   8.870  0.2241  0.0221  0.0905
    1ION     CL69875  15.394  16.846   8.530 -0.3487  0.0479 -0.0110
    1ION     CL69876   1.362   3.983   2.109 -0.1997 -0.1060  0.3287
    1ION     CL69877   4.355  11.953   6.753  0.0486 -0.1482 -0.0409
    1ION     CL69878   9.181  19.819   0.523 -0.2385  0.0365  0.1928
    1ION     CL69879  29.586   9.754   1.062 -0.1958  0.0290 -0.1809
    1ION     CL69880   2.279   4.827   7.552 -0.0854  0.1563 -0.0477
    1ION     CL69881  13.467  17.393   6.919 -0.0416  0.1471 -0.3374
    1ION     CL69882   9.142  22.785   7.102 -0.1549  0.0059 -0.0449
    1ION     CL69883   5.770  15.730   2.189  0.3026  0.0808  0.0563
    1ION     CL69884  15.478   8.283   1.645 -0.3475  0.1794 -0.0146
    1ION     CL69885   9.451  15.405   7.581  0.1503  0.4201  0.3149
    1ION     CL69886   3.194   0.831   1.905 -0.0770  0.2254  0.1508
    1ION     CL69887  19.606  26.877   0.684 -0.1224 -0.1584 -0.2741
    1ION     CL69888   9.934  23.188   0.592 -0.2042 -0.2875  0.0033
    1ION     CL69889   5.590  24.251   7.991 -0.1810 -0.1322 -0.1786
    1ION     CL69890   9.549   9.934   0.872 -0.0896 -0.1643 -0.1359
    1ION     CL69891  25.258  27.772   7.934  0.0144 -0.2910 -0.1543
    1ION     CL69892   9.421  23.456   0.936  0.0936  0.0883 -0.0671
    1ION     CL69893  26.314   3.535   1.717 -0.3796  0.0911  0.0461
    1ION     CL69894   2.116   2.156   7.457  0.0373 -0.0000  0.1213
    1ION     CL69895   5.681  20.794   6.644  0.1268  0.1470  0.1143
    1ION     CL69896  20.509   7.681   1.928 -0.0601 -0.1159  0.0919
    1ION     CL69897  11.965   1.614   0.851  0.1353 -0.1354  0.1372
    1ION     CL69898  11.992  14.213   2.457  0.1563  0.0790  0.0045
    1ION     CL69899   9.228   6.783   8.303 -0.0701 -0.0760  0.2157
    1ION     CL69900   1.206  21.428   2.465  0.0377 -0.0583 -0.1409
    1ION     CL69901  12.469  22.759   0.919 -0.4943  0.0317 -0.0324
    1ION     CL69902   4.869  25.273   0.667  0.0008  0.0386  0.0221
    1ION     CL69903  26.849   3.599   7.026  0.1380  0.0583  0.0743
    1ION     CL69904   3.423  18.305   1.058  0.3417  0.0407  0.1180
    1ION     CL69905   4.165  28.575   7.966 -0.0786  0.0075  0.0150
    1ION     CL69906  25.290  11.323   2.384  0.0272 -0.0463  0.1438
    1ION     CL69907  23.967  22.138   1.373  0.0029 -0.0848 -0.1734
    1ION     CL69908  27.176   0.796   0.625 -0.0704 -0.2054 -0.0912
    1ION     CL69909   4.306  27.218   6.474 -0.0333  0.0549 -0.2416
    1ION     CL69910  21.522   3.906   2.388  0.0576 -0.0883 -0.0257
    1ION     CL69911   4.160  19.608   2.412 -0.0298 -0.1696 -0.0403
    1ION     CL69912  24.452  28.331   8.356  0.1347 -0.2604 -0.2313
    1ION     CL69913   4.757  27.569   8.427 -0.2187  0.0307 -0.2437
    1ION     CL69914  15.070  20.800   5.689  0.0726 -0.0213 -0.1245
    1ION     CL69915  11.776  18.367   1.379 -0.0286  0.2346  0.0058
    1ION     CL69916   2.002   8.693   7.298  0.1188 -0.0438  0.0458
    1ION     CL69917  18.076  28.719   8.538  0.2691 -0.1570 -0.0698
    1ION     CL69918   2.652   5.925   1.980  0.0612 -0.2629  0.0765
    1ION     CL69919  28.379  13.562   8.711  0.0415 -0.1805 -0.1991
    1ION     CL69920  13.592   5.264   8.235  0.0764 -0.1035  0.0989
    1ION     CL69921   1.137  11.890   1.680 -0.1643 -0.1481  0.2866
    1ION     CL69922  19.192  29.358   2.379  0.0841  0.0335 -0.0837
    1ION     CL69923  14.218   6.723   8.948  0.0680 -0.0199  0.0667
    1ION     CL69924  26.386  23.805   8.701  0.1941 -0.3015 -0.0158
    1ION     CL69925  25.358   1.583   2.191 -0.1360 -0.0373  0.0091
    1ION     CL69926  28.250  21.647   0.242  0.0810  0.1523 -0.2642
    1ION     CL69927  24.671  15.218   7.750 -0.1680 -0.1093  0.1146
    1ION     CL69928   5.480  15.516   1.130  0.0105  0.3003  0.1682
    1ION     CL69929   9.018  14.382   7.144 -0.2255 -0.3070  0.0668
    1ION     CL69930  28.371   5.474   1.403 -0.2030 -0.5682 -0.0986
    1ION     CL69931  19.922  16.904   7.957  0.1598  0.0396  0.0131
    1ION     CL69932  18.220  20.097   6.853 -0.1617  0.0871  0.1530
    1ION     CL69933   0.211  20.160   8.472  0.0468  0.4498  0.1086
    1ION     CL69934  19.128  11.948   1.496  0.2496 -0.1166 -0.2567
    1ION     CL69935  22.034   4.525   2.385 -0.4652  0.3477  0.4070
    1ION     CL69936   8.524  20.879   1.653 -0.0436 -0.0324 -0.0666
    1ION     CL69937   3.524  17.208   6.995  0.0870 -0.1865 -0.0511
    1ION     CL69938   1.405   5.469   0.400  0.0467 -0.0853 -0.1319
    1ION     CL69939  10.957  27.551   9.490 -0.1115 -0.0919  0.0011
    1ION     CL69940  18.070   4.494   0.597 -0.0866 -0.1026  0.1091
    1ION     CL69941  24.247  24.465   7.249  0.0946 -0.0601  0.1579
    1ION     CL69942  26.510  14.212   8.147 -0.1653 -0.0779 -0.0749
    1ION     CL69943   4.024  21.917   9.346  0.0235  0.0444 -0.2193
    1ION     CL69944   6.562  23.964   0.772 -0.1701  0.0595 -0.0220
    1ION     CL69945   8.309  29.788   2.225 -0.1807 -0.0859  0.0457
    1ION     CL69946   7.821   6.482   1.554 -0.0947  0.1185  0.0560
    1ION     CL69947   5.324   4.313   6.975 -0.2540 -0.3519 -0.1434
    1ION     CL69948   1.310  25.865   6.928 -0.0475  0.0519 -0.1112
    1ION     CL69949   1.205  10.947   2.198  0.1527 -0.0423 -0.1197
    1ION     CL69950  18.976  19.605   6.620 -0.1625  0.1662 -0.1125
    1ION     CL69951   6.297  12.892   8.411 -0.0186 -0.0695  0.2700
    1ION     CL69952  23.419  13.667   8.074  0.1298  0.2794  0.0562
    1ION     CL69953  27.204   9.290   0.656 -0.2831  0.4402  0.1429
    1ION     CL69954  15.328   0.337   7.382 -0.3449 -0.0380 -0.3110
    1ION     CL69955   0.643  22.858   1.781 -0.0353 -0.2238  0.0433
    1ION     CL69956  11.726  11.777   0.540 -0.0877  0.0603 -0.4665
    1ION     CL69957  10.545   7.653   0.846 -0.0585 -0.3816 -0.1237
    1ION     CL69958  29.166  20.919   7.539 -0.3018 -0.0055  0.3605
    1ION     CL69959   6.589  15.510   6.553  0.0023 -0.1982 -0.2015
    1ION     CL69960  16.941   2.345   2.550 -0.1683 -0.1987  0.1344
    1ION     CL69961  19.709  24.688   1.097 -0.1340  0.1874  0.1831
    1ION     CL69962  28.279  17.771   1.065 -0.0600 -0.1627  0.1391
    1ION     CL69963  26.674   1.778   7.939  0.0241  0.2456 -0.0647
    1ION     CL69964  10.346  11.664   8.388 -0.0307  0.1673 -0.0132
    1ION     CL69965  18.995  21.761   6.693  0.0121  0.2988  0.0848
    1ION     CL69966  20.002  26.897   1.780 -0.0068  0.0327 -0.0803
    1ION     CL69967   1.102   2.513   8.404 -0.0004  0.3691 -0.0534
    1ION     CL69968  24.904  19.635   1.792  0.1059 -0.0154 -0.2072
    1ION     CL69969  13.562  23.129   7.856 -0.1787  0.0908  0.1112
    1ION     CL69970  20.386   6.089   2.233  0.1955 -0.2830 -0.2470
    1ION     CL69971   2.845  23.878   6.681 -0.3182  0.0219 -0.0745
    1ION     CL69972   9.613   0.230   9.435  0.1457  0.0032  0.2756
    1ION     CL69973   0.395  18.104   0.886 -0.2602 -0.2197  0.5202
    1ION     CL69974  28.363  12.576   7.961 -0.1759  0.1445 -0.0079
    1ION     CL69975   6.578  27.942   7.967 -0.0021  0.0556  0.0413
    1ION     CL69976  17.419  21.214   5.110  0.0785 -0.0688  0.4389
    1ION     CL69977   5.823  25.493   9.380 -0.3315 -0.1500 -0.2058
    1ION     CL69978   0.210   9.363   0.177 -0.0323  0.0663 -0.3553
    1ION     CL69979   0.855  20.617   7.154 -0.0213 -0.0517 -0.2717
    1ION     CL69980  11.773  25.123   6.866  0.1311  0.0329  0.1500
    1ION     CL69981  11.979  10.738   0.707  0.1869  0.2650  0.1191
    1ION     CL69982  10.395  20.460   1.816 -0.0841 -0.2461  0.1721
    1ION     CL69983  22.913  22.821   1.961 -0.0064 -0.1802  0.1661
    1ION     CL69984  26.331  14.640   1.911 -0.2784  0.1418  0.0491
    1ION     CL69985  11.733  23.661   9.366  0.2015 -0.0987  0.1429
    1ION     CL69986   9.462  29.097   2.193 -0.0679  0.0129  0.1867
    1ION     CL69987  13.350  15.647   1.865 -0.0704  0.0954  0.0483
    1ION     CL69988   3.875  15.207   2.223 -0.3113 -0.0841  0.1937
    1ION     CL69989  22.393  16.091   7.009 -0.0100 -0.2330 -0.1426
    1ION     CL69990   7.848  20.252   0.498  0.0503 -0.1033 -0.0730
    1ION     CL69991   6.504   8.515   7.198 -0.0692 -0.0084 -0.0134
    1ION     CL69992  20.361  18.765   0.054  0.0637  0.1206  0.0536
    1ION     CL69993  18.856  19.642   1.417 -0.2729  0.2847 -0.0560
    1ION     CL69994  21.529  28.777   2.162 -0.2834  0.2603 -0.1439
    1ION     CL69995  13.939  21.474   6.809  0.1616 -0.1351  0.1107
    1ION     CL69996   8.675   9.252   1.910  0.3513 -0.1496  0.3954
    1ION     CL69997  21.443  10.043   1.448 -0.0564  0.4142  0.0072
    1ION     CL69998  23.445   0.937   9.297 -0.0682 -0.2357 -0.0834
    1ION     CL69999  27.154  16.296   7.629  0.1210  0.0655 -0.5186
    1ION     CL70000  25.511  26.502   9.280 -0.3607 -0.1871 -0.0001
    1ION     CL70001  20.378  19.571   1.351 -0.2758 -0.1670 -0.2410
    1ION     CL70002   0.427   1.789   7.054 -0.1075  0.0126  0.3368
    1ION     CL70003   7.720  26.342   1.859 -0.2414  0.0605  0.1947
    1ION     CL70004   0.622  22.048   6.564  0.0570 -0.0212 -0.0795
    1ION     CL70005  25.727   3.671   9.225  0.3026 -0.1012 -0.0504
    1ION     CL70006   5.414  12.939   0.635 -0.0924  0.0955  0.4986
    1ION     CL70007   5.285  15.078   7.296 -0.1812 -0.0457 -0.0228
    1ION     CL70008  12.207  13.679   0.129  0.1241  0.1855 -0.0122
    1ION     CL70009  10.183  10.792   8.344  0.0530  0.0746  0.1430
    1ION     CL70010  23.987  16.930   1.180  0.1762 -0.0590 -0.0551
    1ION     CL70011   6.895  23.252   0.439 -0.0900 -0.1183 -0.0361
    1ION     CL70012  24.557   5.291   3.037  0.1091 -0.0550 -0.1851
    1ION     CL70013  17.873  15.126   9.513  0.0819 -0.0411  0.0087
    1ION     CL70014   2.988  20.714   2.251  0.0433 -0.1597  0.0621
    1ION     CL70015  29.246   5.770   1.145 -0.4493 -0.0128 -0.3551
    1ION     CL70016   4.955   6.356   7.479  0.2720  0.0853 -0.2039
    1ION     CL70017   1.108  11.846   0.104  0.0166  0.0187 -0.0579
    1ION     CL70018   9.625  12.799   8.030 -0.2258 -0.0105  0.0792
    1ION     CL70019  12.629  18.681   6.258  0.0908 -0.3213  0.0144
    1ION     CL70020  13.938  25.146   0.827  0.2043  0.4398 -0.0636
    1ION     CL70021  23.282  21.868   0.573 -0.0638 -0.3170 -0.1669
    1ION     CL70022  15.238   1.339   9.187 -0.0532 -0.0998  0.1515
    1ION     CL70023  14.467  10.334   1.158 -0.0084  0.1477  0.1265
    1ION     CL70024  25.807   1.860   9.169  0.0169  0.0193  0.0416
    1ION     CL70025  22.675  25.400   6.643 -0.0436  0.0073  0.0663
    1ION     CL70026   5.613   2.739   9.390 -0.0478 -0.0711  0.0269
    1ION     CL70027  13.525  26.086   6.455  0.1146 -0.1225 -0.1897
    1ION     CL70028  15.152  25.160   8.035  0.1883  0.1983  0.2689
    1ION     CL70029  29.391   1.301   1.542  0.1026 -0.2420  0.0486
    1ION     CL70030  10.647  25.995   7.771 -0.1861 -0.2434 -0.1389
    1ION     CL70031  25.412   4.832   8.001  0.0495 -0.0051  0.1593
    1ION     CL70032  24.483   1.594   1.799  0.1564  0.1908  0.4037
    1ION     CL70033  12.277  21.380   6.060  0.3145  0.3008 -0.3231
    1ION     CL70034  14.930  15.455   8.931 -0.1442 -0.2326  0.1744
    1ION     CL70035   9.331  14.445   0.213 -0.0992  0.1416  0.1668
    1ION     CL70036   8.891  13.483   1.910 -0.1538 -0.0308  0.0929
    1ION     CL70037  10.954   4.984   0.571  0.0564 -0.0414 -0.0635
    1ION     CL70038  18.482  14.546   1.980 -0.3193  0.1825  0.2099
    1ION     CL70039  28.998  17.041   1.732 -0.1487  0.0211  0.0906
    1ION     CL70040  29.369  25.853   8.854  0.0765 -0.0914  0.2374
    1ION     CL70041  11.854  16.498   7.064 -0.0922 -0.1652 -0.0280
    1ION     CL70042   3.659  18.459   2.364 -0.0470 -0.0411 -0.2509
    1ION     CL70043  29.501  10.542   7.762  0.1842  0.1838  0.0314
    1ION     CL70044   8.877   5.980   7.953  0.0396  0.1666 -0.1374
    1ION     CL70045  26.732  23.152   2.299  0.0847  0.2045 -0.1564
    1ION     CL70046  18.200  22.379   7.072  0.2513  0.0360 -0.0477
    1ION     CL70047  20.393  29.111   2.269 -0.0293 -0.0179 -0.2583
    1ION     CL70048  12.722  25.834   9.269 -0.2039  0.2073 -0.3226
    1ION     CL70049  10.997  10.951   7.831 -0.2043 -0.0616 -0.0731
    1ION     CL70050   5.264  17.007   1.898  0.0132 -0.1310 -0.2139
    1ION     CL70051   8.536  17.909   7.906 -0.0278 -0.2362 -0.1999
    1ION     CL70052   8.878  16.628   7.378 -0.0014  0.1596  0.2172
    1ION     CL70053  27.639   8.648   1.987  0.1957  0.0287 -0.2788
    1ION     CL70054  15.602   4.822   1.521  0.0526 -0.0142 -0.1382
    1ION     CL70055  11.421  15.292   7.458  0.1258 -0.1716 -0.1230
    1ION     CL70056   1.000   9.612   2.325  0.2144 -0.3799  0.2671
    1ION     CL70057  22.435  17.250   0.002  0.2832  0.2082  0.0689
    1ION     CL70058  12.889   2.794   2.915  0.0314 -0.0324 -0.0250
    1ION     CL70059  11.503   0.499   1.172 -0.3759  0.1393  0.0483
    1ION     CL70060   2.465   6.621   1.244 -0.3024  0.2129 -0.2093
    1ION     CL70061   2.846   8.006   1.138 -0.1591  0.2746 -0.1234
    1ION     CL70062  10.390  17.495   9.128 -0.2583  0.0474 -0.1799
    1ION     CL70063   3.584  19.061   1.777 -0.3024 -0.0055  0.0200
    1ION     CL70064   6.760  26.817   7.683  0.1217 -0.1446  0.0070
    1ION     CL70065  27.935  27.293   1.893 -0.1254  0.0307  0.0679
    1ION     CL70066  19.465  28.450   8.706  0.2522  0.2758  0.1531
    1ION     CL70067  10.947   6.572   7.602  0.1408 -0.1598  0.1607
    1ION     CL70068   5.137   5.629   7.118  0.2480 -0.1089  0.0403
    1ION     CL70069   9.579   6.058   0.230  0.0680 -0.2638 -0.2179
    1ION     CL70070  28.411  25.010   8.619 -0.2395  0.3726 -0.3294
    1ION     CL70071  20.019  15.778   7.326  0.4469 -0.1220 -0.1910
    1ION     CL70072  14.281  24.111   9.060 -0.1229 -0.0626  0.2031
    1ION     CL70073  28.308   2.523   7.634  0.0146 -0.0373 -0.0296
    1ION     CL70074  13.123  17.126   1.054  0.0770  0.1302 -0.1844
    1ION     CL70075  16.178  17.830   1.069  0.0357 -0.1322  0.1205
    1ION     CL70076   2.247   6.283   7.333  0.1363  0.0986 -0.1397
    1ION     CL70077  28.364  25.936   8.656 -0.0002  0.1436  0.3751
    1ION     CL70078  25.173   7.525   9.424 -0.2337 -0.1375  0.3690
    1ION     CL70079   4.034  15.906   7.177  0.3054  0.6245  0.2856
    1ION     CL70080   0.317  26.243   8.078 -0.1854 -0.0257 -0.1109
    1ION     CL70081  15.147  27.079   7.526  0.0325 -0.1472 -0.4117
    1ION     CL70082   8.768   0.304   9.156  0.1850  0.2515  0.0680
    1ION     CL70083   1.321  20.125   2.388 -0.1467  0.0773 -0.0032
    1ION     CL70084  23.063  28.084   7.534 -0.1659 -0.1933 -0.1416
    1ION     CL70085   3.854   8.771   2.742  0.1136 -0.2563 -0.2509
    1ION     CL70086   1.815  26.881   5.661 -0.0642  0.0107 -0.0893
    1ION     CL70087   1.986  13.335   1.993 -0.3317  0.1173 -0.3770
    1ION     CL70088  21.346  18.672   6.928 -0.3510  0.0057 -0.4454
    1ION     CL70089  12.816   1.853   3.398 -0.1433  0.1538 -0.0505
    1ION     CL70090  17.628   2.003   1.248  0.0069 -0.1294  0.0787
    1ION     CL70091  24.247  23.211   2.550 -0.1011 -0.2094 -0.0248
    1ION     CL70092  26.020   6.591   2.236 -0.0166 -0.0496 -0.1725
    1ION     CL70093  10.720   1.947   2.407  0.2016 -0.1531  0.0935
    1ION     CL70094  12.239  25.163   9.271  0.1269 -0.2998  0.2795
    1ION     CL70095  14.956  19.688   8.333 -0.1651  0.1328  0.2051
    1ION     CL70096  27.990  21.762   2.103 -0.0192 -0.1487  0.2742
    1ION     CL70097   6.052  19.410   0.457 -0.1653 -0.2272  0.0252
    1ION     CL70098   8.128  28.392   7.068 -0.0109  0.0790 -0.0045
    1ION     CL70099  11.492  20.832   0.410 -0.1144 -0.0907 -0.3945
    1ION     CL70100  28.547  13.624   2.311 -0.1188 -0.0199  0.2146
    1ION     CL70101   5.856   8.805   7.856  0.0036  0.0046  0.0995
    1ION     CL70102  29.189  12.692   8.651 -0.3537  0.0170  0.1877
    1ION     CL70103   1.905   1.278   6.512  0.0878 -0.0375  0.0323
    1ION     CL70104  13.099  28.716   6.990  0.0924  0.1657 -0.1261
    1ION     CL70105   0.408  17.421   2.662 -0.0088 -0.0218 -0.2023
    1ION     CL70106   8.547  23.092   6.423 -0.0075 -0.0426  0.1488
    1ION     CL70107  11.846  15.207   6.775 -0.1355  0.1965  0.0029
    1ION     CL70108   2.181  24.554   1.091  0.1565  0.1012 -0.0681
    1ION     CL70109   2.782   4.555   8.241 -0.3053 -0.0676 -0.0742
    1ION     CL70110  16.307   5.925   2.653  0.0229 -0.3166 -0.2204
    1ION     CL70111  14.635   4.828   0.674 -0.0265  0.0944  0.0318
    1ION     CL70112  11.928   7.780   2.829 -0.0102  0.1321 -0.2157
    1ION     CL70113  16.527  11.251   0.486 -0.0811 -0.2458 -0.2275
    1ION     CL70114  16.432  26.514   9.236  0.0379  0.0229 -0.0090
    1ION     CL70115  14.122  20.602   6.388  0.2754 -0.1719  0.1655
    1ION     CL70116  25.727   1.456   1.061  0.1498  0.1753 -0.0235
    1ION     CL70117   2.321   1.275   7.962 -0.2621 -0.1405 -0.2135
    1ION     CL70118  12.676  21.473   9.374 -0.1294 -0.1047 -0.2759
    1ION     CL70119  25.757  15.959   1.778 -0.1299  0.0090  0.2064
    1ION     CL70120   4.646   8.146   7.010 -0.1353  0.0309  0.0105
    1ION     CL70121   6.685  18.446   6.669 -0.0777 -0.1152 -0.1831
    1ION     CL70122  15.063   7.581   2.846  0.1139 -0.1621 -0.1143
    1ION     CL70123  17.793  12.782   2.016  0.1441  0.1810 -0.1017
    1ION     CL70124   7.223   8.396   2.018  0.0511 -0.1273  0.0800
    1ION     CL70125  19.632  21.830   7.942  0.2155 -0.0575 -0.0018
    1ION     CL70126   2.562   0.867   6.988 -0.1290 -0.0087  0.6232
    1ION     CL70127  13.528   0.916   1.883 -0.1575  0.3102  0.2051
    1ION     CL70128   0.088   0.677   1.775 -0.1203  0.3487 -0.0987
    1ION     CL70129   6.334  11.468   0.069  0.0026 -0.3748 -0.1267
    1ION     CL70130   3.070  14.046   8.872  0.2156 -0.2086  0.0784
    1ION     CL70131   2.457  13.482   8.494  0.0548  0.1273 -0.3229
    1ION     CL70132   8.441   1.326   2.692  0.0778  0.1017  0.1899
    1ION     CL70133  23.795   1.151   7.709  0.0870 -0.2230 -0.1137
    1ION     CL70134  23.109  25.421   2.455 -0.1743  0.1951 -0.0401
    1ION     CL70135  24.042  15.939   1.100  0.1383  0.2316  0.1695
    1ION     CL70136  21.893  26.390   7.603 -0.0104 -0.1125 -0.3537
    1ION     CL70137  25.037  13.751   2.699 -0.0069 -0.2336  0.3608
    1ION     CL70138  20.420   6.723   8.428 -0.0450 -0.2638  0.1958
    1ION     CL70139  21.457  26.277   8.565  0.0403 -0.2971  0.1607
    1ION     CL70140  28.316  21.795   8.056  0.1728  0.0774  0.1688
    1ION     CL70141  24.288   4.512   9.483  0.0911  0.2372 -0.5245
    1ION     CL70142  22.148  13.280   1.825  0.1295 -0.1136  0.3579
    1ION     CL70143  24.322  16.018   7.469 -0.0655 -0.2229  0.0268
    1ION     CL70144   5.397  23.725   8.099  0.2188  0.0160 -0.0309
    1ION     CL70145  22.308  19.050   9.250  0.0269  0.2197 -0.3004
    1ION     CL70146   6.536  25.718   0.436 -0.0576 -0.2831  0.0379
    1ION     CL70147  21.877  22.508   0.290 -0.0577 -0.0731  0.1127
    1ION     CL70148  28.847  24.095   7.087  0.0971  0.0278  0.2122
    1ION     CL70149  16.775  11.052   8.089 -0.1940  0.0699  0.0863
    1ION     CL70150  21.749  29.415   3.056 -0.0872  0.0329  0.1067
    1ION     CL70151   1.098   4.900   1.785 -0.0641  0.0211  0.1552
    1ION     CL70152  19.515  11.727   7.252  0.0824 -0.0507  0.0882
    1ION     CL70153   7.166  22.153   2.102 -0.2453  0.2587 -0.1272
    1ION     CL70154  26.560  19.538   8.870 -0.2983 -0.0167  0.0595
    1ION     CL70155  11.992   2.956   0.426  0.0612  0.2843  0.0547
    1ION     CL70156  12.468  29.660   3.048 -0.2095  0.1717  0.1605
    1ION     CL70157  29.546   4.191   1.918 -0.2526  0.2774 -0.2264
    1ION     CL70158  17.363  24.495   8.889  0.0962 -0.0327  0.0338
    1ION     CL70159   3.380   6.585   7.567  0.2042 -0.0561 -0.0068
    1ION     CL70160  28.390  25.097   1.908 -0.1289 -0.1937  0.1075
    1ION     CL70161  11.486  20.480   8.692 -0.2169 -0.1238  0.0960
    1ION     CL70162   5.071   6.550   9.098  0.2787  0.0398  0.0652
    1ION     CL70163  19.375   4.286   9.075  0.3702  0.3479  0.1650
    1ION     CL70164   7.832   1.040   7.910  0.0093  0.2460 -0.1526
    1ION     CL70165  16.304  25.271   5.959 -0.0035 -0.2617 -0.3240
    1ION     CL70166  16.644  15.692   0.367 -0.0903  0.0376  0.1476
    1ION     CL70167  20.709  12.444   1.570  0.2329  0.0664  0.0442
    1ION     CL70168  26.831  14.018   1.429 -0.0796 -0.2077  0.0760
    1ION     CL70169  17.816  26.463   1.237 -0.1784 -0.0142  0.2706
    1ION     CL70170   0.167   0.592   7.473 -0.1892  0.4169  0.0892
    1ION     CL70171   4.517  26.361   1.101 -0.1742 -0.0303  0.0821
    1ION     CL70172  26.183   4.580   7.792 -0.0635 -0.3990 -0.0614
    1ION     CL70173  20.077  29.807   1.626  0.0031  0.1243 -0.0311
    1ION     CL70174   2.824  21.283   1.097 -0.1677 -0.3205 -0.2958
    1ION     CL70175   6.936   0.305   9.030 -0.1817 -0.3710 -0.1869
    1ION     CL70176   8.601  17.458   6.022  0.1667 -0.1503 -0.2507
    1ION     CL70177   7.098  17.412   6.886  0.1835 -0.3280  0.2469
    1ION     CL70178  19.463   5.132   3.756 -0.1156 -0.0629 -0.0746
    1ION     CL70179   4.067  20.666   8.038 -0.1813  0.1014 -0.3425
    1ION     CL70180  18.453  13.854   8.559 -0.0024  0.0827  0.0787
    1ION     CL70181  24.854  26.640   1.072  0.5202 -0.2732 -0.2454
    1ION     CL70182   4.803  17.716   7.791  0.0530 -0.0997  0.1656
    1ION     CL70183   6.372   2.570   7.002 -0.0565 -0.0644  0.0413
    1ION     CL70184  15.802   3.377   8.745 -0.3877  0.2036  0.0760
    1ION     CL70185  22.429  20.087   6.730 -0.1888 -0.0772  0.0905
    1ION     CL70186   3.008   4.066   0.353  0.1230 -0.0334  0.2274
    1ION     CL70187  25.465   5.347   8.836 -0.0524  0.3669 -0.0705
    1ION     CL70188  26.460   8.102   2.219 -0.0580 -0.0918  0.1364
    1ION     CL70189   0.729  19.662   7.732  0.1064  0.1466 -0.1246
    1ION     CL70190  21.203   8.684   1.207 -0.0492 -0.1501 -0.0800
    1ION     CL70191  11.080  14.503   7.169  0.3621  0.1432  0.2335
    1ION     CL70192  17.985  29.711   2.993 -0.0132  0.0270 -0.0563
    1ION     CL70193  16.210  10.673   1.640  0.2465  0.2113  0.0316
    1ION     CL70194  25.314  29.276   7.995  0.1315 -0.1505 -0.1457
    1ION     CL70195   6.846   3.757   9.368 -0.1758 -0.1953 -0.0981
    1ION     CL70196   5.332  22.431   1.046  0.1318 -0.1205 -0.1124
    1ION     CL70197  12.404   1.635   2.013 -0.1527  0.1266 -0.0226
    1ION     CL70198  25.625  14.422   8.474 -0.1479  0.1972 -0.3803
    1ION     CL70199  20.923   6.665   2.558  0.1094  0.1174 -0.0308
    1ION     CL70200  20.964  17.531   7.280 -0.1971  0.1831 -0.1043
    1ION     CL70201   8.365  11.632   8.242 -0.1028  0.0903  0.0589
    1ION     CL70202   9.950  20.966   8.829 -0.1272  0.0772 -0.2161
    1ION     CL70203  20.925  11.451   1.341  0.1986  0.1634 -0.1509
    1ION     CL70204  14.056   2.328   2.948  0.1286 -0.0847  0.2527
    1ION     CL70205  20.675  27.942   9.314 -0.0109  0.0660 -0.2792
    1OPC    NC370206  19.605  12.432   7.688  0.1283 -0.2728 -0.1935
    1OPC    PO470207  19.596  12.736   7.401 -0.1521  0.0283  0.4444
    1OPC    GL170208  19.647  12.774   6.962 -0.1115 -0.0641 -0.2010
    1OPC    GL270209  19.626  12.428   6.745  0.0545 -0.3384  0.2014
    1OPC    C1B70210  19.741  12.049   6.514 -0.0385  0.1560 -0.0057
    1OPC    D2B70211  19.909  11.790   6.228  0.2200  0.1396  0.1198
    1OPC    C3B70212  19.841  11.757   5.807  0.0971  0.0988  0.1182
    1OPC    C4B70213  19.798  11.634   5.330 -0.1444 -0.1059 -0.2529
    1OPC    NC370214  10.826  16.454   6.732 -0.0109  0.0336 -0.1892
    1OPC    PO470215  11.201  16.753   6.525 -0.0237 -0.0503 -0.1792
    1OPC    GL170216  11.295  16.706   6.092 -0.2574 -0.0263  0.3976
    1OPC    GL270217  11.435  16.868   5.949  0.0343 -0.4654 -0.1066
    1OPC    C1B70218  11.699  17.053   5.602 -0.0536  0.2614  0.4836
    1OPC    D2B70219  11.822  16.904   5.172  0.1261 -0.2284  0.2484
    1OPC    C3B70220  11.536  16.967   4.895  0.0407  0.1539  0.0169
    1OPC    C4B70221  11.785  17.156   4.529  0.1498 -0.0596  0.0268
    1OPC    NC370222  22.131  28.575   7.225 -0.1090 -0.0330  0.2334
    1OPC    PO470223  22.546  28.682   6.958  0.1522 -0.0248 -0.5807
    1OPC    GL170224  22.630  28.728   6.550  0.2295  0.1006  0.2623
    1OPC    GL270225  22.609  28.641   6.285  0.1327  0.2594 -0.0362
    1OPC    C1B70226  22.713  28.382   5.885  0.1809 -0.0154  0.3892
    1OPC    D2B70227  22.821  28.077   5.561 -0.1447  0.4306  0.1236
    1OPC    C3B70228  22.864  28.201   5.145  0.1198  0.1696 -0.0034
    1OPC    C4B70229  22.578  27.935   4.917  0.1184 -0.1521 -0.0580
    1OPC    NC370230  27.210  29.319   7.222 -0.1631  0.1291 -0.1215
    1OPC    PO470231  27.051  29.263   6.748 -0.0379 -0.3409 -0.0829
    1OPC    GL170232  26.812  29.284   6.287  0.0202 -0.4456 -0.0826
    1OPC    GL270233  26.829  29.218   5.910  0.0468 -0.1620 -0.3623
    1OPC    C1B70234  26.830  29.285   5.449  0.1728  0.0074  0.0903
    1OPC    D2B70235  27.245  29.348   5.155 -0.0261 -0.2791 -0.0230
    1OPC    C3B70236  27.243  29.622   4.740  0.2399  0.2065 -0.2424
    1OPC    C4B70237  27.113   0.123   4.440  0.0813 -0.1289 -0.3201
    1OPC    NC370238  25.001  29.446   7.668  0.2259  0.1412 -0.1767
    1OPC    PO470239  24.769  29.768   7.299  0.2470  0.0403  0.0170
    1OPC    GL170240  24.791  29.761   6.839  0.2111 -0.1113 -0.2842
    1OPC    GL270241  24.742   0.005   6.518 -0.1030 -0.0923 -0.1429
    1OPC    C1B70242  24.881  29.773   6.126 -0.0134 -0.0931  0.2474
    1OPC    D2B70243  25.113  29.671   5.753  0.0311 -0.1326  0.0127
    1OPC    C3B70244  24.937  29.464   5.350 -0.1238  0.2311 -0.1000
    1OPC    C4B70245  24.812  29.441   4.876  0.0840  0.0300  0.2080
    1OPC    NC370246   4.638  29.182   6.401 -0.0943  0.1495  0.1606
    1OPC    PO470247   4.246  29.353   6.541 -0.0354 -0.1496  0.1330
    1OPC    GL170248   4.085  28.971   6.209 -0.3079 -0.0547 -0.1352
    1OPC    GL270249   4.099  28.898   5.875 -0.1033 -0.3046 -0.0548
    1OPC    C1B70250   4.056  28.745   5.480  0.2646 -0.1084 -0.0152
    1OPC    D2B70251   3.888  28.764   5.064  0.3738  0.1014  0.0828
    1OPC    C3B70252   3.983  28.870   4.680 -0.1213 -0.1395  0.2845
    1OPC    C4B70253   4.208  28.959   4.246 -0.1362  0.4772 -0.1293
    1OPC    NC370254  19.937   7.631   8.193  0.2198  0.1384  0.1259
    1OPC    PO470255  20.102   7.749   7.781 -0.0556 -0.2311  0.1059
    1OPC    GL170256  19.872   7.558   7.452  0.1607  0.1433  0.1018
    1OPC    GL270257  19.947   7.426   7.216 -0.3516  0.2851  0.0489
    1OPC    C1B70258  19.937   7.187   6.823  0.1649 -0.0687 -0.1888
    1OPC    D2B70259  19.741   6.811   6.772  0.0546  0.3407 -0.1270
    1OPC    C3B70260  19.707   6.584   6.461  0.1262 -0.2049 -0.2209
    1OPC    C4B70261  19.562   6.326   6.197  0.2216  0.2558  0.0969
    1OPC    NC370262   1.221   8.298   6.357 -0.0106 -0.1076  0.0615
    1OPC    PO470263   0.918   8.159   6.371 -0.1757 -0.3002 -0.0551
    1OPC    GL170264   1.109   7.932   6.040  0.0962 -0.3562 -0.0514
    1OPC    GL270265   1.356   7.749   5.875 -0.0705 -0.1382 -0.1098
    1OPC    C1B70266   1.439   7.625   5.503 -0.0489 -0.3369  0.0497
    1OPC    D2B70267   1.574   7.341   5.272  0.0277  0.1476 -0.1341
    1OPC    C3B70268   1.812   7.151   5.060 -0.2410 -0.0264  0.0800
    1OPC    C4B70269   1.992   7.209   4.674  0.1367  0.0261 -0.0507
    1OPC    NC370270  10.165  23.448   5.861 -0.0461 -0.0704  0.0587
    1OPC    PO470271  10.627  23.405   5.755  0.0895 -0.0031 -0.3207
    1OPC    GL170272  10.760  23.267   5.363 -0.0738 -0.0372 -0.0334
    1OPC    GL270273  11.047  23.192   5.124  0.0521  0.0940 -0.0031
    1OPC    C1B70274  11.109  23.319   4.736 -0.0348  0.2079  0.3325
    1OPC    D2B70275  11.309  23.494   4.386  0.2207 -0.2971  0.0022
    1OPC    C3B70276  11.344  23.219   3.971  0.0098 -0.3301  0.2459
    1OPC    C4B70277  11.156  22.814   3.776 -0.1739 -0.0966 -0.2373
    1OPC    NC370278  10.846  26.071   6.829 -0.1016  0.0139 -0.3179
    1OPC    PO470279  10.700  25.871   6.332  0.0007  0.0530  0.2999
    1OPC    GL170280  10.896  26.078   5.882  0.3633  0.3467  0.1977
    1OPC    GL270281  10.769  26.279   5.584  0.0336 -0.0948 -0.0126
    1OPC    C1B70282  10.458  26.181   5.278  0.1878 -0.1721  0.1988
    1OPC    D2B70283  10.110  25.963   5.121  0.0544 -0.0051 -0.0425
    1OPC    C3B70284  10.115  25.635   4.968  0.0194  0.1845  0.1732
    1OPC    C4B70285  10.122  25.554   4.510  0.0857 -0.1831 -0.1355
    1OPC    NC370286  12.332  27.968   6.657  0.0006  0.2752 -0.1510
    1OPC    PO470287  12.223  27.659   6.356 -0.1656 -0.4402  0.3461
    1OPC    GL170288  11.745  27.635   6.362 -0.1436 -0.3888  0.0490
    1OPC    GL270289  11.489  27.765   6.155 -0.2420  0.0229 -0.0033
    1OPC    C1B70290  11.312  27.994   5.862  0.3377 -0.2007 -0.1206
    1OPC    D2B70291  11.242  28.328   5.773  0.0216  0.2597  0.1832
    1OPC    C3B70292  11.008  28.702   5.700  0.2425 -0.3033  0.1602
    1OPC    C4B70293  10.972  29.082   5.407 -0.0250 -0.1090 -0.0910
    1OPC    NC370294  23.784  23.173   7.329 -0.2434  0.3513 -0.1544
    1OPC    PO470295  23.397  22.869   7.280 -0.2103 -0.1345 -0.0931
    1OPC    GL170296  23.724  22.825   6.972  0.0288 -0.1648  0.0958
    1OPC    GL270297  23.958  22.727   6.714  0.2825  0.2195  0.0152
    1OPC    C1B70298  24.033  22.272   6.511 -0.2618  0.1839 -0.0698
    1OPC    D2B70299  24.150  21.959   6.217  0.0406 -0.2316 -0.0514
    1OPC    C3B70300  24.001  21.855   5.802  0.1255  0.1446  0.1017
    1OPC    C4B70301  24.121  21.688   5.374 -0.0885  0.1686  0.1637
    1OPC    NC370302  21.813   5.867   8.004  0.0831  0.2674  0.2828
    1OPC    PO470303  21.735   5.566   8.250  0.1832 -0.0924  0.2806
    1OPC    GL170304  21.519   5.403   7.987 -0.0937  0.3834  0.1426
    1OPC    GL270305  21.300   5.317   7.685  0.4578 -0.1688  0.3638
    1OPC    C1B70306  21.177   5.130   7.327 -0.1172 -0.2869 -0.0115
    1OPC    D2B70307  20.854   4.749   7.279 -0.2322  0.0792 -0.1467
    1OPC    C3B70308  20.605   4.760   6.888  0.0047 -0.0466  0.1776
    1OPC    C4B70309  20.762   4.924   6.499 -0.0162 -0.4363 -0.1798
    1OPC    NC370310  20.267  22.843   6.223  0.2900 -0.2271  0.0545
    1OPC    PO470311  20.063  22.447   6.353  0.0472  0.0341  0.0144
    1OPC    GL170312  20.138  22.437   5.897  0.3050  0.0490  0.0785
    1OPC    GL270313  20.254  22.448   5.569 -0.0094 -0.3532 -0.1850
    1OPC    C1B70314  20.317  22.392   5.116 -0.1708 -0.1597  0.0944
    1OPC    D2B70315  20.324  22.402   4.706  0.1629 -0.0629  0.0803
    1OPC    C3B70316  20.323  22.422   4.289  0.4672 -0.0961 -0.1003
    1OPC    C4B70317  20.416  22.545   3.913 -0.1456 -0.0864 -0.2187
    1OPC    NC370318  15.888   9.008   7.386 -0.1818 -0.3026  0.1122
    1OPC    PO470319  15.504   9.225   7.411 -0.0749  0.2400 -0.1762
    1OPC    GL170320  15.772   9.446   7.131  0.1311  0.1090 -0.3180
    1OPC    GL270321  15.899   9.377   6.939 -0.4185  0.2144  0.1571
    1OPC    C1B70322  16.098   9.143   6.691  0.1737  0.1814  0.0395
    1OPC    D2B70323  16.103   8.808   6.380 -0.1707 -0.1384  0.1529
    1OPC    C3B70324  16.164   8.501   6.108  0.3260 -0.0732  0.4759
    1OPC    C4B70325  16.375   8.170   5.793 -0.2632 -0.1708 -0.1123
    1OPC    NC370326   9.261   8.565   6.425 -0.0766 -0.3289  0.4448
    1OPC    PO470327   8.959   8.995   6.422 -0.1647 -0.3908  0.2721
    1OPC    GL170328   8.998   8.881   5.964 -0.0560  0.4604  0.1429
    1OPC    GL270329   8.880   9.013   5.694 -0.2142  0.1499  0.2641
    1OPC    C1B70330   8.798   9.075   5.127 -0.4477  0.4207 -0.2161
    1OPC    D2B70331   8.857   8.754   4.836  0.1701  0.4332 -0.1016
    1OPC    C3B70332   9.123   8.470   4.578 -0.0405 -0.0367 -0.0135
    1OPC    C4B70333   9.602   8.418   4.635  0.0414 -0.1395 -0.1308
    1OPC    NC370334   9.382  26.081   6.671 -0.0076 -0.0235  0.1949
    1OPC    PO470335   9.580  26.471   6.380 -0.2203  0.1992 -0.0182
    1OPC    GL170336   9.434  26.962   6.045  0.5774  0.1555 -0.2033
    1OPC    GL270337   9.310  27.175   5.939  0.1397 -0.1420  0.1036
    1OPC    C1B70338   9.358  27.451   5.567 -0.2150  0.0253  0.1335
    1OPC    D2B70339   9.558  27.753   5.504  0.0041  0.0492  0.0109
    1OPC    C3B70340   9.943  27.703   5.214 -0.1671 -0.0104  0.1011
    1OPC    C4B70341  10.090  28.108   4.975  0.0018 -0.1809  0.3864
    1OPC    NC370342   4.719  21.511   6.857 -0.2492 -0.2700 -0.2877
    1OPC    PO470343   4.739  21.332   6.534 -0.1074 -0.0153 -0.2265
    1OPC    GL170344   4.763  20.914   6.345 -0.1344 -0.4244  0.0876
    1OPC    GL270345   4.596  20.860   6.046  0.0100 -0.0405  0.1000
    1OPC    C1B70346   4.585  20.369   5.771 -0.2500  0.1719 -0.5713
    1OPC    D2B70347   4.833  20.226   5.440  0.2470  0.2440 -0.0315
    1OPC    C3B70348   5.307  20.037   5.468 -0.3704 -0.2045  0.0856
    1OPC    C4B70349   5.696  20.071   5.152  0.0594  0.0881  0.0469
    1OPC    NC370350  11.540  12.412   6.886 -0.3017  0.3200  0.1618
    1OPC    PO470351  11.292  12.749   6.635 -0.0414 -0.2081  0.2531
    1OPC    GL170352  11.260  12.484   6.274 -0.1849 -0.0771  0.1625
    1OPC    GL270353  11.362  12.360   5.979  0.3439  0.4137 -0.0472
    1OPC    C1B70354  11.531  12.556   5.507  0.0963  0.0240 -0.1762
    1OPC    D2B70355  11.802  12.428   5.163  0.0291  0.0668 -0.1509
    1OPC    C3B70356  12.190  12.496   5.419 -0.0203  0.1289 -0.1516
    1OPC    C4B70357  12.485  12.760   5.460 -0.2420 -0.4079 -0.1140
    1OPC    NC370358  16.223   9.890   7.745 -0.0727 -0.1636 -0.1733
    1OPC    PO470359  16.594   9.648   7.737 -0.0391  0.2269  0.0852
    1OPC    GL170360  16.500   9.721   7.321 -0.1374 -0.0103  0.2080
    1OPC    GL270361  16.365   9.659   7.000 -0.3311 -0.0658  0.1263
    1OPC    C1B70362  16.220   9.578   6.556 -0.3743 -0.0250  0.2135
    1OPC    D2B70363  16.174   9.509   6.116 -0.2912  0.0264 -0.1712
    1OPC    C3B70364  15.912   9.070   5.960 -0.1405 -0.1896  0.1362
    1OPC    C4B70365  15.912   8.702   5.770  0.0543  0.1957  0.0794
    1OPC    NC370366   6.962   4.877   7.171 -0.1799 -0.1425  0.0024
    1OPC    PO470367   6.714   5.081   6.857 -0.0652 -0.1013  0.2066
    1OPC    GL170368   6.447   5.119   6.578 -0.2344 -0.0292 -0.0729
    1OPC    GL270369   6.332   5.270   6.249  0.0288 -0.2605 -0.0762
    1OPC    C1B70370   6.265   5.240   5.794 -0.1127 -0.3574  0.2506
    1OPC    D2B70371   6.258   5.173   5.504 -0.2461 -0.0429  0.0412
    1OPC    C3B70372   5.895   5.082   5.329 -0.1148  0.3133  0.0917
    1OPC    C4B70373   5.550   5.174   5.043 -0.0017 -0.0665 -0.0985
    1OPC    NC370374  24.249  27.677   6.602  0.3899 -0.1824  0.1144
    1OPC    PO470375  24.388  28.009   6.827  0.0262  0.2084  0.0811
    1OPC    GL170376  24.334  28.127   6.443  0.0280 -0.2639 -0.0271
    1OPC    GL270377  24.003  28.257   6.214 -0.5112  0.2540  0.2071
    1OPC    C1B70378  23.753  28.502   6.051  0.2058  0.0877  0.1188
    1OPC    D2B70379  23.710  28.769   5.685 -0.0204 -0.2056  0.0953
    1OPC    C3B70380  24.019  28.882   5.423  0.0739  0.1574  0.0337
    1OPC    C4B70381  24.097  29.186   5.022 -0.0789 -0.1192  0.2239
    1OPC    NC370382  12.918  17.862   6.206 -0.0326 -0.0425 -0.2502
    1OPC    PO470383  12.720  18.112   6.030 -0.4830 -0.1983  0.0152
    1OPC    GL170384  12.966  18.077   5.710 -0.1651 -0.2680 -0.1897
    1OPC    GL270385  13.097  17.817   5.636 -0.3314 -0.3296  0.3935
    1OPC    C1B70386  13.272  17.433   5.545 -0.2052  0.1353  0.0735
    1OPC    D2B70387  13.370  17.199   5.314 -0.0426  0.3715 -0.3153
    1OPC    C3B70388  13.237  16.874   5.189  0.1558 -0.2000  0.2685
    1OPC    C4B70389  13.511  16.476   5.102 -0.1486  0.0784 -0.1420
    1OPC    NC370390  25.459  17.477   6.419 -0.1136 -0.4337 -0.1051
    1OPC    PO470391  25.655  17.869   6.568  0.2229 -0.0193 -0.1924
    1OPC    GL170392  25.911  17.814   6.258  0.1951  0.1203 -0.1612
    1OPC    GL270393  25.853  17.610   6.023  0.0418  0.1933  0.1869
    1OPC    C1B70394  25.691  17.557   5.629 -0.1501  0.3000  0.1238
    1OPC    D2B70395  25.583  17.712   5.177  0.3637  0.0958 -0.1098
    1OPC    C3B70396  25.731  17.564   4.765  0.2452  0.2210 -0.3157
    1OPC    C4B70397  25.863  17.667   4.376 -0.1913  0.1846 -0.1027
    1OPC    NC370398   8.074  15.341   6.472  0.0569  0.1964  0.2646
    1OPC    PO470399   7.777  15.010   6.254 -0.3270  0.0014 -0.0097
    1OPC    GL170400   7.931  15.330   5.992  0.0003  0.1299  0.1601
    1OPC    GL270401   8.005  15.396   5.710  0.0296  0.1082 -0.1403
    1OPC    C1B70402   8.041  15.769   5.460  0.0787 -0.0649  0.1689
    1OPC    D2B70403   8.060  15.900   5.006 -0.1758  0.2515  0.1135
    1OPC    C3B70404   7.765  15.833   4.829  0.0569 -0.0864 -0.0007
    1OPC    C4B70405   7.392  16.014   4.546 -0.0831 -0.1865  0.0644
    1OPC    NC370406  17.869  21.732   6.028 -0.0734 -0.1392 -0.1365
    1OPC    PO470407  17.764  22.034   5.711 -0.1760  0.0742  0.1172
    1OPC    GL170408  18.137  22.227   5.550  0.5466  0.0157 -0.4001
    1OPC    GL270409  18.254  22.447   5.255 -0.2245  0.2957  0.3161
    1OPC    C1B70410  18.265  22.447   4.811 -0.0463 -0.0791 -0.0571
    1OPC    D2B70411  18.468  22.380   4.448  0.2511 -0.0730  0.0064
    1OPC    C3B70412  18.437  22.280   4.113 -0.0304 -0.4045  0.1699
    1OPC    C4B70413  18.742  22.079   3.896  0.2010 -0.3167 -0.0453
    1OPC    NC370414  28.098  22.837   7.115 -0.1396 -0.0874  0.1971
    1OPC    PO470415  28.156  22.581   6.751  0.2509 -0.0499  0.0300
    1OPC    GL170416  28.410  22.852   6.666  0.0655  0.0324  0.1203
    1OPC    GL270417  28.283  23.141   6.510 -0.0454 -0.0459  0.2817
    1OPC    C1B70418  28.444  23.400   6.167  0.1003  0.0507  0.0862
    1OPC    D2B70419  28.646  23.492   5.740 -0.0047 -0.0880  0.0325
    1OPC    C3B70420  28.716  23.194   5.379 -0.0266 -0.0685  0.1601
    1OPC    C4B70421  28.508  22.862   5.082  0.0648 -0.3284  0.0381
    1OPC    NC370422   5.221   5.182   6.945 -0.2735  0.0969 -0.0159
    1OPC    PO470423   4.986   5.276   6.590 -0.1044  0.1762  0.2481
    1OPC    GL170424   5.299   5.401   6.385 -0.1279  0.0600  0.0279
    1OPC    GL270425   5.380   5.400   6.147  0.2932  0.0921  0.0802
    1OPC    C1B70426   5.298   5.700   5.781 -0.0862 -0.0431 -0.3012
    1OPC    D2B70427   5.014   5.720   5.385 -0.0469 -0.1293 -0.0257
    1OPC    C3B70428   5.225   5.690   4.917 -0.1285 -0.2811 -0.2978
    1OPC    C4B70429   5.004   5.818   4.524  0.0748 -0.0334  0.0295
    1OPC    NC370430  19.075   7.440   8.231  0.0655 -0.2140  0.3986
    1OPC    PO470431  18.686   7.759   8.084 -0.1564 -0.1381 -0.2140
    1OPC    GL170432  18.553   7.866   7.695 -0.2809 -0.0402  0.2626
    1OPC    GL270433  18.699   7.867   7.408 -0.0708 -0.1123 -0.1987
    1OPC    C1B70434  18.702   7.763   6.984 -0.0044 -0.2842 -0.2105
    1OPC    D2B70435  18.501   7.806   6.610  0.1921 -0.1431 -0.1039
    1OPC    C3B70436  18.615   7.678   6.212 -0.0570  0.0513 -0.2703
    1OPC    C4B70437  18.675   7.346   5.868  0.0117  0.1356  0.0739
    1OPC    NC370438  15.428   9.748   7.413  0.2335  0.2375 -0.1718
    1OPC    PO470439  15.045   9.859   7.252  0.1788 -0.2896  0.0019
    1OPC    GL170440  15.043   9.364   7.257 -0.1241  0.1545  0.2365
    1OPC    GL270441  15.166   9.261   7.007  0.0621 -0.0872 -0.3323
    1OPC    C1B70442  15.487   9.324   6.654  0.2621 -0.0215  0.0354
    1OPC    D2B70443  15.739   9.258   6.377 -0.1547 -0.1765  0.0940
    1OPC    C3B70444  15.457   9.106   6.033  0.0558 -0.0665  0.0996
    1OPC    C4B70445  15.546   9.046   5.623  0.3027 -0.0188 -0.0481
    1OPC    NC370446  10.773   8.321   6.713  0.0998 -0.0485 -0.1017
    1OPC    PO470447  10.468   8.586   6.944 -0.3835  0.0487 -0.1826
    1OPC    GL170448  10.613   8.748   6.531  0.2749 -0.1202  0.0536
    1OPC    GL270449  10.538   8.828   6.258 -0.0161 -0.0160  0.0031
    1OPC    C1B70450  10.550   8.840   5.913  0.3342 -0.3067  0.2841
    1OPC    D2B70451  10.391   8.635   5.480 -0.3914  0.1513 -0.0273
    1OPC    C3B70452  10.055   8.388   5.539 -0.1578  0.0078 -0.1517
    1OPC    C4B70453   9.656   8.384   5.609 -0.2393  0.0486  0.5222
    1OPC    NC370454  22.882  24.920   6.820  0.0991  0.0183  0.4799
    1OPC    PO470455  22.886  24.550   6.646 -0.0020 -0.2225 -0.3080
    1OPC    GL170456  23.270  24.569   6.358 -0.0194  0.0693  0.3495
    1OPC    GL270457  23.279  24.522   6.143 -0.0683  0.3601 -0.4120
    1OPC    C1B70458  23.050  24.690   5.886  0.0793 -0.0009  0.0854
    1OPC    D2B70459  22.804  24.871   5.681  0.0846  0.1626  0.0937
    1OPC    C3B70460  22.816  24.934   5.166  0.2705  0.1885  0.2503
    1OPC    C4B70461  23.042  25.239   4.849 -0.1358  0.0181 -0.0557
    1OPC    NC370462  27.417  13.947   7.039 -0.0006  0.1385 -0.3759
    1OPC    PO470463  27.446  14.310   6.709  0.0406 -0.0361  0.1561
    1OPC    GL170464  27.104  14.240   6.514  0.1820 -0.0402  0.0884
    1OPC    GL270465  26.879  14.317   6.293 -0.2290 -0.0478 -0.0204
    1OPC    C1B70466  26.626  14.446   5.886 -0.2148 -0.2778 -0.1676
    1OPC    D2B70467  26.740  14.401   5.408 -0.0264  0.0889  0.1888
    1OPC    C3B70468  26.526  14.180   5.156  0.1290 -0.1504  0.0607
    1OPC    C4B70469  26.120  13.957   5.036  0.1267  0.1346  0.2078
    1OPC    NC370470  29.214  13.935   6.730 -0.1717 -0.1559 -0.2900
    1OPC    PO470471  28.860  14.269   6.852 -0.1760 -0.0989  0.1557
    1OPC    GL170472  29.017  14.593   6.434 -0.2439 -0.0282  0.3716
    1OPC    GL270473  29.158  14.629   6.056  0.1553  0.0345 -0.1899
    1OPC    C1B70474  29.060  14.556   5.668  0.0081 -0.1627  0.1100
    1OPC    D2B70475  29.076  14.374   5.325 -0.1762 -0.0352 -0.2013
    1OPC    C3B70476  29.123  14.477   4.878  0.0773 -0.2128 -0.3372
    1OPC    C4B70477  29.151  14.622   4.480 -0.2334  0.0267 -0.2849
    1OPC    NC370478  19.794   9.581   8.149  0.0191 -0.1260 -0.4727
    1OPC    PO470479  19.818   9.113   7.967 -0.0676  0.0785  0.1502
    1OPC    GL170480  19.673   9.263   7.670 -0.0487 -0.1274 -0.0090
    1OPC    GL270481  19.601   9.146   7.421  0.1217 -0.3582  0.1519
    1OPC    C1B70482  19.851   9.036   7.096 -0.0977 -0.0722  0.0852
    1OPC    D2B70483  19.778   9.080   6.697  0.0315  0.3300 -0.3717
    1OPC    C3B70484  20.016   9.029   6.321 -0.2795 -0.0870 -0.2053
    1OPC    C4B70485  20.274   8.747   6.025  0.1660  0.4154  0.1398
    1OPC    NC370486  11.701  10.002   7.354 -0.0230 -0.0635 -0.2867
    1OPC    PO470487  12.034   9.724   7.092 -0.1751  0.0508 -0.2304
    1OPC    GL170488  12.151   9.438   6.748  0.1276 -0.0949 -0.0272
    1OPC    GL270489  12.486   9.306   6.775  0.0878  0.2920 -0.0071
    1OPC    C1B70490  12.685   8.945   6.663 -0.1137  0.3044 -0.0015
    1OPC    D2B70491  12.882   8.789   6.281 -0.1186  0.0872 -0.2913
    1OPC    C3B70492  13.347   8.700   6.084 -0.0093  0.2881  0.2231
    1OPC    C4B70493  13.792   8.823   6.115 -0.3595 -0.0127 -0.2559
    1OPC    NC370494   8.896  17.843   6.149  0.0275 -0.0699  0.0149
    1OPC    PO470495   8.900  18.237   6.154 -0.1253  0.0011  0.3129
    1OPC    GL170496   8.705  18.368   5.769  0.1470  0.1707 -0.0256
    1OPC    GL270497   8.805  18.433   5.422  0.0897  0.0073 -0.1717
    1OPC    C1B70498   8.558  18.495   4.970  0.2613 -0.2879 -0.0979
    1OPC    D2B70499   8.340  18.645   4.519  0.1538  0.2718 -0.1381
    1OPC    C3B70500   8.636  18.919   4.277 -0.1468 -0.6066 -0.0808
    1OPC    C4B70501   8.995  19.127   4.063  0.2979  0.0163 -0.0855
    1OPC    NC370502  26.175  13.323   7.300 -0.1584  0.2172  0.0112
    1OPC    PO470503  26.073  12.876   7.232  0.0307 -0.0784  0.0138
    1OPC    GL170504  26.243  12.679   6.767 -0.1225  0.1078 -0.0354
    1OPC    GL270505  26.289  12.880   6.411 -0.2667 -0.0900  0.0799
    1OPC    C1B70506  26.273  12.930   6.019  0.3889  0.0406  0.0262
    1OPC    D2B70507  26.272  12.841   5.636  0.0519  0.0156 -0.2035
    1OPC    C3B70508  26.353  13.261   5.342  0.1635  0.4240 -0.2220
    1OPC    C4B70509  26.341  13.666   5.369 -0.0965  0.1946  0.3161
    1OPC    NC370510  29.823   5.034   6.931  0.2986 -0.1707  0.3245
    1OPC    PO470511  29.546   5.202   7.148  0.0070  0.0148  0.3308
    1OPC    GL170512  29.420   5.405   6.759  0.0623 -0.2513 -0.0067
    1OPC    GL270513  29.301   5.412   6.426  0.1734 -0.1002  0.1481
    1OPC    C1B70514  29.362   5.415   5.949  0.1436 -0.0928 -0.2888
    1OPC    D2B70515  29.481   5.604   5.549 -0.0900 -0.1570  0.3184
    1OPC    C3B70516  29.523   5.201   5.235 -0.0325 -0.2243 -0.0691
    1OPC    C4B70517  29.389   5.429   4.905 -0.1816  0.2061  0.3910
    1OPC    NC370518  18.405  22.972   6.332 -0.1760  0.0027  0.2558
    1OPC    PO470519  18.847  22.907   6.084 -0.3224  0.0866  0.1304
    1OPC    GL170520  18.880  22.536   5.745 -0.1228 -0.1699  0.0273
    1OPC    GL270521  18.977  22.411   5.443  0.0400  0.3266  0.0524
    1OPC    C1B70522  18.834  22.315   5.089 -0.4097 -0.0960 -0.2442
    1OPC    D2B70523  18.794  22.655   4.676  0.1133 -0.0520  0.0435
    1OPC    C3B70524  19.206  22.759   4.534  0.1018 -0.2602  0.0245
    1OPC    C4B70525  19.376  22.660   4.119  0.1630 -0.3956 -0.2070
    1OPC    NC370526  29.384   8.744   7.374 -0.3418  0.0459 -0.1877
    1OPC    PO470527  29.231   8.501   6.944  0.2995  0.0864  0.1924
    1OPC    GL170528  29.148   8.592   6.558 -0.1839  0.0771  0.2114
    1OPC    GL270529  29.085   8.592   6.204 -0.1239 -0.0629  0.3441
    1OPC    C1B70530  28.896   8.322   5.826  0.7038 -0.2650 -0.0371
    1OPC    D2B70531  28.961   8.024   5.480  0.1966  0.0288 -0.1933
    1OPC    C3B70532  28.717   7.974   5.070  0.2926  0.0106 -0.1960
    1OPC    C4B70533  28.424   7.927   4.759  0.2433  0.3394 -0.1029
    1OPC    NC370534   9.397  20.885   6.259 -0.1000  0.0055 -0.1715
    1OPC    PO470535   9.403  21.363   6.186  0.1723 -0.2625  0.0342
    1OPC    GL170536   9.624  21.267   5.747  0.1504 -0.0269 -0.1902
    1OPC    GL270537   9.676  21.263   5.435 -0.0893 -0.0810 -0.1249
    1OPC    C1B70538   9.647  20.957   5.081  0.2211 -0.1030 -0.1503
    1OPC    D2B70539   9.958  20.878   4.738  0.0408  0.1223 -0.1757
    1OPC    C3B70540   9.867  20.546   4.731 -0.2701 -0.1480 -0.2014
    1OPC    C4B70541  10.018  20.119   4.622  0.0578 -0.3040  0.0230
    1OPC    NC370542  26.056   4.249   7.391  0.1636  0.0900 -0.2323
    1OPC    PO470543  26.364   4.306   7.197 -0.1789 -0.1738  0.0569
    1OPC    GL170544  26.141   4.580   6.886  0.0428  0.0675  0.0079
    1OPC    GL270545  26.109   4.799   6.581  0.1193  0.3445 -0.0359
    1OPC    C1B70546  26.123   4.737   6.143  0.3108 -0.0612 -0.1226
    1OPC    D2B70547  25.969   4.782   5.702  0.1443  0.1829  0.0147
    1OPC    C3B70548  25.899   5.000   5.390  0.0290 -0.0137 -0.0346
    1OPC    C4B70549  26.061   5.012   4.932 -0.1513  0.0216  0.2187
    1OPC    NC370550  19.417  24.478   6.250 -0.5024  0.1724  0.0696
    1OPC    PO470551  19.226  24.481   5.738  0.2579 -0.2185  0.1995
    1OPC    GL170552  18.972  24.538   5.371  0.1747 -0.2411  0.3799
    1OPC    GL270553  19.046  24.791   5.161 -0.2914 -0.0039  0.1818
    1OPC    C1B70554  18.945  25.110   4.819  0.2951  0.2223 -0.1457
    1OPC    D2B70555  18.877  25.484   4.723 -0.1579  0.0204 -0.0216
    1OPC    C3B70556  18.645  25.549   4.351  0.3798  0.2144  0.1751
    1OPC    C4B70557  18.551  25.952   4.086 -0.2599 -0.1327  0.1001
    1OPC    NC370558  27.380   2.211   7.222  0.0542 -0.1263 -0.3404
    1OPC    PO470559  27.577   2.102   6.894  0.0121 -0.1245 -0.0528
    1OPC    GL170560  27.443   2.117   6.373  0.0438  0.0158  0.0442
    1OPC    GL270561  27.430   2.197   6.098  0.0397  0.1518  0.0553
    1OPC    C1B70562  27.645   2.236   5.689  0.2816 -0.1214  0.1619
    1OPC    D2B70563  27.701   2.025   5.267 -0.0274  0.3412 -0.1804
    1OPC    C3B70564  28.073   2.101   5.021  0.2145  0.0996 -0.1430
    1OPC    C4B70565  28.204   2.113   4.681  0.1064 -0.0711  0.0835
    1OPC    NC370566   6.815  17.212   5.979  0.2479 -0.2122 -0.0565
    1OPC    PO470567   6.660  16.821   6.274  0.1010 -0.0531 -0.2566
    1OPC    GL170568   6.801  16.672   5.895 -0.0648  0.1813 -0.1008
    1OPC    GL270569   7.101  16.733   5.643  0.2977 -0.0772 -0.1818
    1OPC    C1B70570   7.211  16.590   5.275  0.0537  0.0655  0.3052
    1OPC    D2B70571   7.257  16.593   4.890  0.0707 -0.0596  0.2396
    1OPC    C3B70572   7.609  16.356   4.829  0.0735  0.2871 -0.1409
    1OPC    C4B70573   7.940  16.256   4.484  0.1847  0.0611  0.0801
    1OPC    NC370574  14.688  18.135   6.044 -0.1204 -0.0698  0.1995
    1OPC    PO470575  14.474  17.772   6.064 -0.0226  0.0928 -0.1000
    1OPC    GL170576  14.290  18.053   5.778 -0.2152 -0.0651 -0.0880
    1OPC    GL270577  14.339  18.163   5.483 -0.2198 -0.1002 -0.1334
    1OPC    C1B70578  14.355  18.167   4.956  0.0858 -0.0135  0.1720
    1OPC    D2B70579  14.366  18.329   4.532  0.0399  0.4985 -0.3245
    1OPC    C3B70580  14.514  18.060   4.274 -0.2984 -0.1548 -0.1193
    1OPC    C4B70581  14.452  18.057   3.913 -0.1391 -0.2524 -0.1219
    1OPC    NC370582  20.801  14.149   6.859  0.1796  0.0962  0.0054
    1OPC    PO470583  20.338  14.265   6.691  0.2952 -0.0721 -0.0070
    1OPC    GL170584  20.175  14.173   6.292 -0.2790  0.0112  0.1148
    1OPC    GL270585  19.954  14.031   6.167  0.0121  0.0424 -0.0138
    1OPC    C1B70586  19.815  13.883   5.844  0.0186  0.0330  0.1044
    1OPC    D2B70587  19.677  13.800   5.539 -0.0704 -0.4388  0.2444
    1OPC    C3B70588  19.578  14.092   5.292  0.3081  0.1606  0.2594
    1OPC    C4B70589  19.609  14.007   4.879  0.1362 -0.0549  0.0439
    1OPC    NC370590  27.196  22.942   7.030 -0.0547 -0.2014  0.1201
    1OPC    PO470591  27.306  23.109   6.640  0.4581 -0.0496  0.1152
    1OPC    GL170592  27.239  23.369   6.282  0.2881  0.0034 -0.2142
    1OPC    GL270593  27.019  23.451   6.047  0.1658 -0.0851 -0.3647
    1OPC    C1B70594  27.043  23.373   5.664  0.0517  0.0219  0.1027
    1OPC    D2B70595  27.097  23.350   5.223 -0.1596 -0.0049  0.0302
    1OPC    C3B70596  27.432  23.458   4.969  0.1648 -0.0376  0.0818
    1OPC    C4B70597  27.851  23.415   4.976 -0.0091 -0.0414 -0.1629
    1OPC    NC370598  29.628   1.136   6.173 -0.5925  0.3069 -0.0463
    1OPC    PO470599  29.264   1.232   6.478  0.1578  0.2225 -0.1016
    1OPC    GL170600  28.933   1.092   6.104  0.3608 -0.0482 -0.1582
    1OPC    GL270601  29.038   0.878   5.828 -0.0098  0.1629 -0.3732
    1OPC    C1B70602  28.924   0.941   5.420  0.2937 -0.1168 -0.0778
    1OPC    D2B70603  28.591   0.929   5.105 -0.0054  0.1603 -0.2514
    1OPC    C3B70604  28.388   1.304   4.975  0.0668 -0.0041 -0.0770
    1OPC    C4B70605  28.222   1.681   5.247 -0.0457 -0.1327  0.3136
    1OPC    NC370606  17.023   9.858   7.882  0.2650  0.2180 -0.2741
    1OPC    PO470607  17.397  10.036   7.726  0.3812  0.3804 -0.0808
    1OPC    GL170608  17.413   9.878   7.333 -0.2937  0.0951 -0.1107
    1OPC    GL270609  17.348  10.043   7.000  0.0980  0.1022  0.2740
    1OPC    C1B70610  17.192   9.942   6.532  0.1157 -0.3049 -0.0166
    1OPC    D2B70611  17.055  10.033   6.152 -0.1314 -0.1399 -0.1514
    1OPC    C3B70612  17.112   9.984   5.753  0.2365  0.0668  0.3143
    1OPC    C4B70613  17.310  10.016   5.449  0.0101  0.1546 -0.0781
    1OPC    NC370614   2.347  17.395   6.641 -0.1531  0.1873  0.0224
    1OPC    PO470615   2.593  17.597   7.052 -0.1742  0.3257 -0.2057
    1OPC    GL170616   2.723  17.673   6.655  0.1755 -0.4908 -0.1924
    1OPC    GL270617   2.967  17.764   6.556 -0.1358  0.2435  0.3749
    1OPC    C1B70618   3.081  17.702   6.101  0.1185 -0.0018  0.4617
    1OPC    D2B70619   2.890  17.554   5.639  0.2153 -0.1037 -0.0766
    1OPC    C3B70620   2.830  17.168   5.372  0.0948 -0.0382  0.0979
    1OPC    C4B70621   2.395  17.048   5.256  0.0265  0.1798 -0.0709
    1OPC    NC370622  10.719  14.332   5.978  0.0460 -0.1522  0.0254
    1OPC    PO470623  10.346  14.788   6.080  0.1251  0.2301 -0.2989
    1OPC    GL170624  10.368  14.590   5.713  0.0143  0.2890  0.3104
    1OPC    GL270625  10.277  14.559   5.382  0.0081 -0.1720 -0.1091
    1OPC    C1B70626  10.268  14.854   5.107  0.1457 -0.0682 -0.1049
    1OPC    D2B70627  10.555  15.128   4.934 -0.0913  0.1932 -0.1124
    1OPC    C3B70628  10.792  14.883   4.576 -0.1436  0.2476 -0.2239
    1OPC    C4B70629  11.194  14.867   4.457  0.2058  0.4732  0.1247
    1OPC    NC370630  20.982   0.934   7.932 -0.4025  0.1916  0.0911
    1OPC    PO470631  21.318   1.025   7.662 -0.2789  0.0560 -0.4582
    1OPC    GL170632  21.057   0.860   7.377  0.0558 -0.1722 -0.3252
    1OPC    GL270633  20.912   0.930   7.127 -0.3215  0.0536 -0.1739
    1OPC    C1B70634  20.911   1.037   6.682 -0.0705  0.2391  0.0826
    1OPC    D2B70635  20.710   0.952   6.374 -0.1941  0.1428  0.1535
    1OPC    C3B70636  20.746   1.055   5.954 -0.2712 -0.1392  0.0880
    1OPC    C4B70637  20.681   0.748   5.583  0.0080  0.1878 -0.0565
    1OPC    NC370638  27.097   8.006   7.201 -0.2265 -0.0370 -0.0651
    1OPC    PO470639  27.251   8.290   6.879 -0.0867  0.2738 -0.2472
    1OPC    GL170640  27.103   8.295   6.421 -0.2978 -0.1690  0.1475
    1OPC    GL270641  27.032   8.372   6.177  0.2367  0.0737  0.1283
    1OPC    C1B70642  26.988   8.272   5.775  0.0638 -0.2255  0.2695
    1OPC    D2B70643  26.743   8.457   5.439  0.1606  0.1274 -0.0183
    1OPC    C3B70644  26.810   8.703   5.128 -0.1377 -0.1107  0.0535
    1OPC    C4B70645  26.929   8.980   4.926 -0.0961  0.1836  0.0274
    1OPC    NC370646  28.174   8.196   7.793  0.1736  0.0211 -0.2768
    1OPC    PO470647  28.232   8.308   7.263 -0.0538  0.1093 -0.0911
    1OPC    GL170648  28.204   8.212   6.859 -0.1040  0.1516  0.1341
    1OPC    GL270649  28.227   8.098   6.512 -0.0881 -0.0147 -0.2352
    1OPC    C1B70650  28.353   7.814   6.164 -0.1667 -0.0500  0.0898
    1OPC    D2B70651  28.503   7.911   5.578 -0.3971  0.2727 -0.0715
    1OPC    C3B70652  28.232   7.845   5.230 -0.2427  0.0325 -0.0788
    1OPC    C4B70653  28.249   7.458   4.864 -0.1333 -0.0307 -0.0243
    1OPC    NC370654  27.895   8.941   7.287  0.0894  0.1223  0.0849
    1OPC    PO470655  27.822   9.039   6.886 -0.0734  0.0204 -0.0020
    1OPC    GL170656  28.141   9.109   6.628 -0.0094 -0.1438  0.2597
    1OPC    GL270657  28.168   8.951   6.335  0.3241  0.0116 -0.0648
    1OPC    C1B70658  28.014   8.736   5.995 -0.2679 -0.0783 -0.1394
    1OPC    D2B70659  28.205   8.829   5.633 -0.1205 -0.0569 -0.0901
    1OPC    C3B70660  28.123   8.842   5.334  0.0000 -0.1667 -0.3030
    1OPC    C4B70661  28.444   8.859   4.992  0.4231 -0.1693  0.1110
    1OPC    NC370662   9.147  15.724   7.027  0.2700  0.0689 -0.1328
    1OPC    PO470663   9.069  15.637   6.486  0.0385  0.1882  0.1866
    1OPC    GL170664   8.830  15.579   6.063 -0.3681 -0.4410 -0.1401
    1OPC    GL270665   8.919  15.724   5.740  0.2161 -0.2675  0.2965
    1OPC    C1B70666   8.981  15.960   5.255 -0.0988 -0.1111 -0.1668
    1OPC    D2B70667   9.091  16.220   4.936 -0.2673  0.2590  0.2843
    1OPC    C3B70668   8.879  16.113   4.583 -0.0240  0.2454  0.0253
    1OPC    C4B70669   8.701  16.144   4.172 -0.1503 -0.2131 -0.1199
    1OPC    NC370670   8.414  20.034   6.318  0.0018 -0.0012  0.1419
    1OPC    PO470671   8.221  20.381   6.137 -0.3175  0.1616 -0.0564
    1OPC    GL170672   7.974  20.359   5.821 -0.0339 -0.1269  0.3849
    1OPC    GL270673   7.864  20.332   5.506  0.2530 -0.0077  0.1506
    1OPC    C1B70674   7.909  20.444   5.192 -0.0181 -0.2591 -0.1553
    1OPC    D2B70675   8.038  20.351   4.828  0.0546  0.1348 -0.1377
    1OPC    C3B70676   7.904  20.020   4.633  0.2490  0.0527 -0.4310
    1OPC    C4B70677   7.523  19.937   4.413 -0.1120 -0.0635 -0.0585
    1OPC    NC370678  14.249  27.776   7.387  0.2457  0.0031 -0.1418
    1OPC    PO470679  14.350  28.019   7.039  0.0903 -0.0327 -0.0228
    1OPC    GL170680  14.427  28.156   6.691  0.1704  0.1277 -0.1072
    1OPC    GL270681  14.442  28.310   6.378 -0.1354  0.1393 -0.1143
    1OPC    C1B70682  14.594  28.325   5.854 -0.0780  0.2553 -0.2061
    1OPC    D2B70683  14.669  28.549   5.495 -0.1657  0.0377 -0.1501
    1OPC    C3B70684  14.935  28.382   5.287  0.0493  0.0717  0.3577
    1OPC    C4B70685  15.193  28.444   4.871  0.3273  0.0665  0.1194
    1OPC    NC370686  16.228   6.985   8.695 -0.5590  0.0336 -0.0843
    1OPC    PO470687  16.285   7.148   8.246 -0.2096 -0.0615  0.0618
    1OPC    GL170688  16.047   7.113   7.781 -0.0173 -0.2573 -0.3408
    1OPC    GL270689  16.091   7.127   7.468  0.0705 -0.0988  0.1083
    1OPC    C1B70690  15.900   6.962   7.053  0.1924  0.1306 -0.2765
    1OPC    D2B70691  15.988   6.986   6.606 -0.1721 -0.0381  0.0975
    1OPC    C3B70692  15.834   6.680   6.383 -0.0579 -0.2355 -0.0979
    1OPC    C4B70693  15.824   6.610   5.921 -0.2550  0.0540  0.0507
    1OPC    NC370694  16.782   2.881   8.080 -0.0142  0.1021 -0.4381
    1OPC    PO470695  16.934   3.247   8.209 -0.2491  0.0341  0.0890
    1OPC    GL170696  16.966   3.576   7.940 -0.2222  0.1858 -0.0909
    1OPC    GL270697  17.055   3.768   7.687  0.0643  0.0345  0.1448
    1OPC    C1B70698  16.941   3.961   7.415  0.0804  0.0330  0.2357
    1OPC    D2B70699  17.012   3.924   7.040 -0.0271  0.1173 -0.1164
    1OPC    C3B70700  16.713   4.064   6.632 -0.0253  0.1486  0.3793
    1OPC    C4B70701  16.860   4.142   6.233 -0.0000  0.2199  0.0638
    1OPC    NC370702  13.555   7.181   8.020 -0.1914  0.1622 -0.1038
    1OPC    PO470703  13.273   7.465   7.946 -0.0683 -0.4117 -0.1920
    1OPC    GL170704  12.983   7.463   7.750  0.1325 -0.0280  0.0547
    1OPC    GL270705  12.748   7.393   7.532 -0.1293  0.1316 -0.1030
    1OPC    C1B70706  12.602   7.254   7.135 -0.3069 -0.0161 -0.2419
    1OPC    D2B70707  12.573   7.048   6.815 -0.2033 -0.0776 -0.0588
    1OPC    C3B70708  12.859   6.758   6.661  0.4189 -0.1459  0.1824
    1OPC    C4B70709  13.156   6.781   6.362  0.0222 -0.0520 -0.0288
    1OPC    NC370710  11.860   6.018   7.615 -0.2006  0.0518 -0.0464
    1OPC    PO470711  11.444   5.859   7.478  0.3087  0.2814  0.4770
    1OPC    GL170712  11.231   5.999   7.149  0.0229 -0.0687 -0.0049
    1OPC    GL270713  11.338   6.072   6.841  0.0223 -0.1707  0.1230
    1OPC    C1B70714  11.450   6.113   6.460  0.5432 -0.0165 -0.1432
    1OPC    D2B70715  11.742   6.002   6.105  0.1590 -0.0279 -0.1857
    1OPC    C3B70716  11.701   6.190   5.787 -0.0651  0.1485 -0.1206
    1OPC    C4B70717  11.754   6.117   5.285  0.1450 -0.2142 -0.1453
    1OPC    NC370718   0.779   6.503   7.112  0.0740 -0.0565  0.1372
    1OPC    PO470719   0.906   6.046   7.134 -0.0524  0.0914 -0.1090
    1OPC    GL170720   0.816   6.062   6.685 -0.0321 -0.2134 -0.0777
    1OPC    GL270721   0.874   6.190   6.369 -0.1638 -0.0871  0.4692
    1OPC    C1B70722   0.790   6.231   5.865  0.2131  0.1994  0.0391
    1OPC    D2B70723   0.807   6.093   5.431 -0.1762  0.0096 -0.0729
    1OPC    C3B70724   0.620   6.300   5.065 -0.0203  0.1921  0.1728
    1OPC    C4B70725   0.405   6.073   4.774 -0.3183 -0.0450 -0.0024
    1OPC    NC370726  18.934   6.038   7.992 -0.1813 -0.0981  0.1153
    1OPC    PO470727  18.980   5.594   8.143 -0.0768 -0.1209 -0.0144
    1OPC    GL170728  19.288   5.768   7.779 -0.3028 -0.1404  0.1614
    1OPC    GL270729  19.304   5.872   7.478  0.2151 -0.0734 -0.1638
    1OPC    C1B70730  18.986   5.719   7.150 -0.3380  0.1173  0.2572
    1OPC    D2B70731  19.098   5.671   6.662  0.0593  0.1564 -0.1992
    1OPC    C3B70732  19.418   5.783   6.368  0.0101  0.0167 -0.0208
    1OPC    C4B70733  19.817   5.754   6.312  0.0076 -0.3656 -0.4828
    1OPC    NC370734  15.295   7.601   8.050 -0.3684  0.1063  0.1725
    1OPC    PO470735  15.416   7.784   7.637  0.1013 -0.0393  0.2645
    1OPC    GL170736  15.491   7.443   7.407  0.2290 -0.4096  0.0807
    1OPC    GL270737  15.723   7.390   7.245 -0.0801  0.0700 -0.1246
    1OPC    C1B70738  15.732   7.348   6.830 -0.2818 -0.0712  0.2695
    1OPC    D2B70739  15.630   7.257   6.416 -0.2282  0.1188  0.2770
    1OPC    C3B70740  15.346   7.293   6.150 -0.0466  0.1993 -0.0072
    1OPC    C4B70741  15.010   7.656   6.094  0.2870 -0.1131 -0.1174
    1OPC    NC370742  13.862  21.820   5.265  0.1335  0.0892  0.0797
    1OPC    PO470743  13.952  22.216   5.509  0.2423 -0.1040 -0.2918
    1OPC    GL170744  14.015  22.307   5.079 -0.2205 -0.2208 -0.2294
    1OPC    GL270745  14.233  22.220   4.835 -0.1913 -0.0299 -0.0850
    1OPC    C1B70746  14.362  22.270   4.428 -0.2256 -0.1362  0.2630
    1OPC    D2B70747  14.326  22.157   3.994 -0.1989 -0.2640  0.0493
    1OPC    C3B70748  14.187  22.329   3.634  0.0278 -0.0753 -0.0048
    1OPC    C4B70749  14.340  22.151   3.286 -0.0031 -0.2636 -0.2805
    1OPC    NC370750  25.220  20.969   6.478  0.0700  0.1595  0.0033
    1OPC    PO470751  24.894  20.984   6.803  0.0376  0.4878 -0.0792
    1OPC    GL170752  24.835  20.859   6.242  0.4847 -0.0646  0.2006
    1OPC    GL270753  24.691  20.668   5.909  0.1019  0.0011  0.0791
    1OPC    C1B70754  25.012  20.528   5.554  0.2810 -0.1770  0.2034
    1OPC    D2B70755  25.274  20.448   5.288 -0.1500 -0.0364 -0.0895
    1OPC    C3B70756  25.138  20.433   4.931  0.0103  0.0096 -0.1615
    1OPC    C4B70757  25.289  20.199   4.515 -0.1144  0.0339  0.2216
    1OPC    NC370758  23.782   3.878   7.902  0.0505  0.1189 -0.0601
    1OPC    PO470759  23.335   3.931   7.655 -0.0547 -0.0564 -0.0435
    1OPC    GL170760  23.361   3.796   7.196 -0.1933 -0.1802 -0.0709
    1OPC    GL270761  23.452   4.030   6.895 -0.1193 -0.1288 -0.1086
    1OPC    C1B70762  23.560   4.217   6.481 -0.0010 -0.2900 -0.1700
    1OPC    D2B70763  23.484   4.505   6.120 -0.0909 -0.0853  0.0578
    1OPC    C3B70764  23.850   4.466   5.817  0.4208 -0.1762 -0.2334
    1OPC    C4B70765  24.152   4.823   5.581 -0.1406  0.1475  0.1405
    1OPC    NC370766   0.763  20.762   6.609 -0.1580  0.0678  0.1511
    1OPC    PO470767   0.772  21.269   6.518 -0.1443  0.0181 -0.2905
    1OPC    GL170768   0.769  21.256   6.057  0.0941 -0.2447  0.1026
    1OPC    GL270769   0.654  21.380   5.844 -0.0141 -0.0225  0.3136
    1OPC    C1B70770   0.573  21.517   5.427  0.0077  0.0307  0.2137
    1OPC    D2B70771   0.498  21.621   5.095 -0.0568 -0.2383  0.2119
    1OPC    C3B70772   0.500  21.978   5.012 -0.2286 -0.0297 -0.1966
    1OPC    C4B70773   0.527  22.274   4.669 -0.5955  0.1063 -0.4457
    1OPC    NC370774   5.849   6.760   6.535  0.0752 -0.1028 -0.1112
    1OPC    PO470775   5.521   6.608   6.558  0.2370  0.2036  0.5086
    1OPC    GL170776   5.534   6.565   6.088  0.3088  0.2086 -0.0588
    1OPC    GL270777   5.356   6.769   5.960 -0.0731 -0.1143  0.0610
    1OPC    C1B70778   5.168   7.038   5.710  0.1626  0.3614  0.2057
    1OPC    D2B70779   5.018   7.224   5.348  0.1611 -0.3102  0.2329
    1OPC    C3B70780   5.039   6.967   5.021 -0.0192  0.2070  0.0076
    1OPC    C4B70781   4.898   7.011   4.617  0.0230 -0.3061  0.1827
    1OPC    NC370782  15.239   4.026   8.088 -0.1923  0.2345 -0.0789
    1OPC    PO470783  15.286   4.424   7.983  0.0166  0.1782  0.1100
    1OPC    GL170784  15.392   4.456   7.485 -0.0179 -0.1093  0.3642
    1OPC    GL270785  15.517   4.792   7.358  0.0239 -0.0273 -0.2910
    1OPC    C1B70786  15.670   4.827   7.006 -0.1681 -0.0568 -0.0817
    1OPC    D2B70787  15.493   4.844   6.631  0.0743 -0.2048 -0.1731
    1OPC    C3B70788  15.575   5.044   6.310  0.0318 -0.1113 -0.0122
    1OPC    C4B70789  15.579   5.274   5.974 -0.2421  0.2062  0.1402
    1OPC    NC370790  22.231  19.687   6.545  0.2834  0.0141  0.0192
    1OPC    PO470791  22.243  19.422   6.207 -0.1811 -0.1020  0.3026
    1OPC    GL170792  21.961  19.437   5.873  0.1928  0.1295 -0.2412
    1OPC    GL270793  21.850  19.426   5.536  0.0829 -0.1147  0.1601
    1OPC    C1B70794  21.831  19.475   5.171  0.0271 -0.1000  0.1402
    1OPC    D2B70795  21.899  19.339   4.715 -0.1192  0.0252 -0.2541
    1OPC    C3B70796  21.667  19.657   4.479 -0.4344 -0.1972 -0.1721
    1OPC    C4B70797  21.955  19.907   4.298 -0.2865 -0.2647 -0.5991
    1OPC    NC370798   3.096  13.437   6.706  0.2007  0.1945  0.2672
    1OPC    PO470799   3.464  13.516   6.343  0.0772  0.0984 -0.0046
    1OPC    GL170800   3.585  13.478   5.892 -0.2746 -0.1657 -0.0695
    1OPC    GL270801   3.524  13.617   5.558  0.1147 -0.0964  0.1673
    1OPC    C1B70802   3.441  13.672   5.071 -0.0431  0.2379  0.0389
    1OPC    D2B70803   3.259  13.610   4.663 -0.2476 -0.1643  0.2157
    1OPC    C3B70804   3.313  13.909   4.428 -0.0518 -0.3113 -0.2377
    1OPC    C4B70805   3.630  13.970   4.183  0.3118  0.0444 -0.2501
    1OPC    NC370806  22.751   0.515   7.495 -0.0438 -0.0245 -0.0315
    1OPC    PO470807  22.575   0.073   7.434  0.2222  0.0454  0.2276
    1OPC    GL170808  22.226  29.660   7.182 -0.2093  0.0394 -0.0777
    1OPC    GL270809  22.146  29.518   6.806 -0.2317 -0.1153 -0.2835
    1OPC    C1B70810  22.233  29.665   6.430 -0.3826 -0.2715  0.1117
    1OPC    D2B70811  22.223  29.746   6.008  0.1459 -0.0622  0.0653
    1OPC    C3B70812  22.249   0.143   5.571 -0.1997 -0.2095  0.0520
    1OPC    C4B70813  22.195   0.413   5.241 -0.2149 -0.1933 -0.1773
    1OPC    NC370814  22.631  21.849   6.662  0.0084 -0.2656 -0.0752
    1OPC    PO470815  22.938  21.432   6.654  0.3840  0.0229 -0.3203
    1OPC    GL170816  22.904  21.304   6.223  0.0609  0.4033 -0.0216
    1OPC    GL270817  22.727  21.138   5.972  0.1664 -0.2916  0.0722
    1OPC    C1B70818  22.561  20.929   5.584  0.2251  0.1168  0.0448
    1OPC    D2B70819  22.527  20.612   5.267  0.0896  0.1082 -0.1271
    1OPC    C3B70820  22.858  20.436   4.921 -0.0108 -0.0960 -0.0665
    1OPC    C4B70821  23.308  20.690   4.888 -0.0101  0.5231 -0.0597
    1OPC    NC370822  15.349   6.873   8.771 -0.1387  0.1462  0.1885
    1OPC    PO470823  15.287   6.858   8.346 -0.1267 -0.0164  0.1730
    1OPC    GL170824  15.137   6.825   7.881 -0.3086  0.2161  0.0367
    1OPC    GL270825  15.013   6.815   7.709  0.4953  0.1620 -0.1291
    1OPC    C1B70826  14.751   6.764   7.367 -0.2880 -0.0591  0.1438
    1OPC    D2B70827  14.446   6.626   7.045 -0.0972 -0.2346  0.0299
    1OPC    C3B70828  14.337   6.527   6.693  0.1742 -0.0977 -0.0659
    1OPC    C4B70829  14.079   6.300   6.356 -0.0506 -0.4422  0.1118
    1OPC    NC370830  23.471   9.041   7.427 -0.3725  0.2694  0.0699
    1OPC    PO470831  23.387   8.683   7.727  0.0524 -0.1020  0.0127
    1OPC    GL170832  23.569   8.560   7.280  0.1662  0.2762  0.0416
    1OPC    GL270833  23.710   8.600   7.049  0.2725  0.0343  0.1606
    1OPC    C1B70834  23.803   8.819   6.758 -0.0156 -0.1508 -0.3154
    1OPC    D2B70835  23.714   9.089   6.464  0.3654 -0.3745 -0.2932
    1OPC    C3B70836  23.949   9.026   6.082 -0.2173  0.1601  0.3734
    1OPC    C4B70837  23.952   9.022   5.662  0.0664 -0.5764 -0.0611
    1OPC    NC370838  20.024  29.302   7.543  0.1006  0.1053 -0.0418
    1OPC    PO470839  20.358  29.581   7.368 -0.2385 -0.0267 -0.2062
    1OPC    GL170840  20.409  29.627   6.978 -0.1636  0.1267  0.3233
    1OPC    GL270841  20.255  29.792   6.670 -0.1319 -0.0429 -0.1353
    1OPC    C1B70842  19.964   0.122   6.387 -0.0169  0.0612 -0.2004
    1OPC    D2B70843  19.956   0.250   5.924 -0.2386 -0.0340  0.1007
    1OPC    C3B70844  19.757   0.471   5.585  0.2034  0.2814 -0.0708
    1OPC    C4B70845  19.830   0.160   5.226 -0.0804  0.0701 -0.1703
    1OPC    NC370846   3.331   2.727   6.923  0.2226 -0.0747 -0.0226
    1OPC    PO470847   2.903   2.795   6.804  0.0042 -0.2378 -0.0742
    1OPC    GL170848   2.810   2.734   6.361 -0.0244  0.0938  0.3768
    1OPC    GL270849   3.017   2.684   6.120 -0.1097  0.0068  0.3665
    1OPC    C1B70850   3.267   2.759   5.760  0.1117  0.2315  0.0363
    1OPC    D2B70851   3.331   2.580   5.362 -0.0093  0.2788 -0.1174
    1OPC    C3B70852   3.544   2.930   5.274  0.3852  0.1370 -0.1984
    1OPC    C4B70853   3.572   3.191   4.885  0.0403  0.1909 -0.3444
    1OPC    NC370854  26.695  17.276   6.409  0.1641  0.2095 -0.0757
    1OPC    PO470855  27.135  17.287   6.260  0.2120  0.0706 -0.3044
    1OPC    GL170856  27.084  17.365   5.753 -0.0614  0.0865  0.0932
    1OPC    GL270857  27.170  17.101   5.562 -0.1051 -0.2897 -0.3033
    1OPC    C1B70858  27.382  16.729   5.500  0.0482  0.0729 -0.0677
    1OPC    D2B70859  27.390  16.559   5.126 -0.1689 -0.0453  0.3903
    1OPC    C3B70860  26.953  16.393   5.045  0.0952 -0.1461  0.2276
    1OPC    C4B70861  26.776  16.121   4.908 -0.1072 -0.2919 -0.0271
    1OPC    NC370862  14.644  19.622   6.198 -0.2295 -0.2968  0.2056
    1OPC    PO470863  14.400  19.933   6.027  0.1939  0.0452  0.0087
    1OPC    GL170864  14.320  20.111   5.625 -0.1310 -0.0332 -0.0413
    1OPC    GL270865  14.377  20.079   5.301 -0.0681  0.1987  0.0681
    1OPC    C1B70866  14.574  19.802   5.039 -0.0892  0.1028 -0.0619
    1OPC    D2B70867  14.511  19.530   4.680  0.0584  0.0271 -0.2585
    1OPC    C3B70868  14.432  19.218   4.403 -0.0395  0.0621  0.0609
    1OPC    C4B70869  14.376  19.296   4.073 -0.3168 -0.1457 -0.2766
    1OPC    NC370870  17.819  13.172   7.583  0.0275  0.0569  0.2474
    1OPC    PO470871  17.533  13.177   7.137 -0.0461  0.0487  0.0670
    1OPC    GL170872  17.926  13.245   6.787 -0.0900 -0.0900  0.3108
    1OPC    GL270873  17.946  13.155   6.488 -0.4301 -0.3691  0.1798
    1OPC    C1B70874  17.988  13.029   6.055  0.2958  0.0026 -0.0683
    1OPC    D2B70875  18.144  13.021   5.647  0.2994  0.0657  0.2939
    1OPC    C3B70876  17.905  12.865   5.321  0.0920  0.3109  0.0511
    1OPC    C4B70877  17.817  13.008   4.813  0.3409  0.2512 -0.1875
    1OPC    NC370878   4.637  16.775   6.496  0.2500  0.2252 -0.0060
    1OPC    PO470879   4.966  16.793   6.801 -0.0167 -0.0258  0.0035
    1OPC    GL170880   5.288  16.817   6.401  0.2628 -0.0636  0.3274
    1OPC    GL270881   5.421  16.770   6.026 -0.1437  0.5425 -0.0472
    1OPC    C1B70882   5.493  16.528   5.687 -0.0490 -0.0005  0.0913
    1OPC    D2B70883   5.496  16.492   5.281  0.2484  0.1159 -0.0805
    1OPC    C3B70884   5.811  16.169   5.137 -0.0840  0.0986 -0.2473
    1OPC    C4B70885   5.738  15.838   4.816 -0.0133  0.0379 -0.3354
    1OPC    NC370886  18.530   5.340   8.445  0.0296 -0.3435 -0.3373
    1OPC    PO470887  18.475   5.743   8.154  0.2518 -0.1466  0.1446
    1OPC    GL170888  18.370   6.001   7.897 -0.3286  0.4527 -0.2125
    1OPC    GL270889  18.443   6.146   7.711 -0.2306 -0.1109 -0.1346
    1OPC    C1B70890  18.596   6.059   7.342  0.0056 -0.4143  0.0263
    1OPC    D2B70891  18.582   5.902   6.894  0.1414  0.0685  0.1190
    1OPC    C3B70892  18.771   5.911   6.446  0.0599 -0.0415  0.0911
    1OPC    C4B70893  18.963   5.767   6.121  0.3859  0.2854  0.0392
    1OPC    NC370894  12.962  22.183   5.953 -0.2823 -0.0087 -0.1701
    1OPC    PO470895  12.586  22.335   5.706  0.2164  0.0857  0.1573
    1OPC    GL170896  12.611  22.393   5.316  0.1822 -0.1447  0.1303
    1OPC    GL270897  12.717  22.654   5.134 -0.0447  0.1781 -0.0973
    1OPC    C1B70898  12.458  22.477   4.817  0.2264 -0.0432  0.4420
    1OPC    D2B70899  12.039  22.586   4.613  0.1494  0.1084  0.2058
    1OPC    C3B70900  12.146  22.469   4.158  0.0580 -0.1258  0.2759
    1OPC    C4B70901  12.530  22.404   3.969  0.1709  0.0117 -0.2214
    1OPC    NC370902  11.769  28.930   7.062  0.1085  0.0172 -0.2756
    1OPC    PO470903  12.206  28.869   6.891  0.1650 -0.3365  0.0550
    1OPC    GL170904  12.023  29.245   6.729 -0.1306 -0.2424 -0.0978
    1OPC    GL270905  12.199  29.570   6.642 -0.1038 -0.1488 -0.3153
    1OPC    C1B70906  12.159   0.087   6.301  0.2170 -0.1615 -0.0580
    1OPC    D2B70907  11.815   0.057   5.984 -0.0111  0.0666 -0.3118
    1OPC    C3B70908  11.700   0.183   5.495 -0.1733  0.1784 -0.1980
    1OPC    C4B70909  11.582   0.068   5.027 -0.1285  0.1127 -0.0028
    1OPC    NC370910   4.628  25.995   5.923 -0.0162 -0.0227 -0.0892
    1OPC    PO470911   4.211  26.206   5.931 -0.1281 -0.2404 -0.1218
    1OPC    GL170912   4.379  26.198   5.528  0.0069 -0.1055  0.0297
    1OPC    GL270913   4.345  26.245   5.124  0.1020  0.3392 -0.0373
    1OPC    C1B70914   4.379  26.192   4.678  0.1907  0.2509 -0.0828
    1OPC    D2B70915   4.470  26.321   4.332 -0.2518  0.1479  0.2177
    1OPC    C3B70916   4.466  26.771   4.156 -0.0322  0.1716 -0.1795
    1OPC    C4B70917   4.712  27.098   4.183  0.0220  0.1364 -0.3063
    1OPC    NC370918  23.320   1.130   7.719 -0.0975 -0.1472 -0.0082
    1OPC    PO470919  23.432   1.261   7.256 -0.2161 -0.0085  0.0378
    1OPC    GL170920  23.094   1.230   6.938  0.1627 -0.3116 -0.1092
    1OPC    GL270921  22.782   1.281   6.814 -0.1004 -0.0997 -0.0384
    1OPC    C1B70922  22.466   1.263   6.498  0.0318  0.0436 -0.1417
    1OPC    D2B70923  22.350   1.059   6.156  0.0794  0.0950 -0.2637
    1OPC    C3B70924  22.647   1.123   5.827  0.0476 -0.2165  0.3246
    1OPC    C4B70925  22.635   0.897   5.425  0.0920 -0.2059  0.1144
    1OPC    NC370926  16.677   5.750   7.777 -0.2388  0.1437  0.0741
    1OPC    PO470927  16.981   6.098   7.782  0.2567 -0.0188  0.1968
    1OPC    GL170928  17.042   5.916   7.402 -0.3361 -0.0114  0.1427
    1OPC    GL270929  17.035   5.901   7.094  0.3956 -0.0969  0.1116
    1OPC    C1B70930  16.966   5.815   6.730  0.0841 -0.1105 -0.3070
    1OPC    D2B70931  17.194   5.812   6.420  0.2235 -0.1827  0.1394
    1OPC    C3B70932  17.270   5.397   6.275 -0.1326  0.1417 -0.0363
    1OPC    C4B70933  17.598   5.189   6.080 -0.2436  0.1157 -0.2652
    1OPC    NC370934   7.866   0.173   7.232 -0.1910  0.1926 -0.0191
    1OPC    PO470935   7.564   0.102   6.829  0.1513 -0.0399 -0.0215
    1OPC    GL170936   7.531   0.535   6.590 -0.0451 -0.0970 -0.3103
    1OPC    GL270937   7.438   0.732   6.409  0.0289  0.1951  0.0176
    1OPC    C1B70938   7.205   0.748   6.109  0.0325  0.0194 -0.0161
    1OPC    D2B70939   7.140   0.851   5.776  0.0230  0.0084 -0.2292
    1OPC    C3B70940   7.099   1.092   5.512 -0.3922 -0.1458 -0.0500
    1OPC    C4B70941   7.262   1.368   5.338  0.2153 -0.2855  0.2366
    1OPC    NC370942  28.418   4.570   6.762  0.0910  0.1173  0.1314
    1OPC    PO470943  28.551   4.990   6.730 -0.1933 -0.0643 -0.0542
    1OPC    GL170944  28.401   4.952   6.353 -0.4790  0.1092 -0.0308
    1OPC    GL270945  28.408   4.851   6.103 -0.2360  0.2769 -0.0479
    1OPC    C1B70946  28.838   4.796   5.865  0.0662 -0.1518 -0.0652
    1OPC    D2B70947  29.011   4.827   5.423  0.3551  0.0568  0.0743
    1OPC    C3B70948  28.846   4.577   5.204  0.1594 -0.1778 -0.1026
    1OPC    C4B70949  28.585   4.201   5.191  0.0337 -0.3853 -0.0625
    1OPC    NC370950  24.034   6.812   7.602 -0.0411 -0.3063 -0.2145
    1OPC    PO470951  24.108   6.522   7.796 -0.1407  0.3207 -0.0583
    1OPC    GL170952  23.893   6.312   7.459  0.3144  0.0299  0.1997
    1OPC    GL270953  23.961   6.518   7.204 -0.1243 -0.1740 -0.2964
    1OPC    C1B70954  23.803   6.870   6.903 -0.1737  0.0984  0.0124
    1OPC    D2B70955  23.730   6.965   6.497  0.1181  0.2163 -0.1282
    1OPC    C3B70956  23.394   6.949   6.194  0.0249  0.1405  0.0104
    1OPC    C4B70957  23.162   6.697   5.915  0.1061  0.2625 -0.1878
    1OPC    NC370958  29.160  10.043   6.148  0.2338  0.0477  0.1412
    1OPC    PO470959  29.590   9.934   5.975  0.4304  0.1109 -0.0185
    1OPC    GL170960  29.407   9.818   5.702  0.5240 -0.0722  0.1071
    1OPC    GL270961  29.140   9.758   5.581 -0.0057 -0.2905  0.2021
    1OPC    C1B70962  28.939   9.619   5.409 -0.0699 -0.1301  0.0951
    1OPC    D2B70963  28.860   9.415   5.058  0.3387 -0.2318  0.1327
    1OPC    C3B70964  28.577   9.321   4.788  0.2241  0.1475  0.0442
    1OPC    C4B70965  28.153   9.343   4.569 -0.3098 -0.1703 -0.2444
    1OPC    NC370966  13.922   9.289   7.776 -0.0297  0.1000 -0.0041
    1OPC    PO470967  14.115   9.222   7.309 -0.4056  0.0779 -0.3941
    1OPC    GL170968  14.454   9.099   7.135 -0.0793 -0.3304  0.2201
    1OPC    GL270969  14.671   9.091   6.958 -0.0351 -0.0785  0.0829
    1OPC    C1B70970  14.683   8.983   6.511  0.1982  0.4021 -0.0290
    1OPC    D2B70971  14.614   8.973   6.068 -0.0174  0.0576  0.3235
    1OPC    C3B70972  14.226   8.930   5.898  0.1533 -0.3124 -0.1118
    1OPC    C4B70973  14.001   9.121   5.552  0.1966 -0.0725  0.1205
    1OPC    NC370974  16.349   7.520   7.708  0.1067 -0.2339  0.0509
    1OPC    PO470975  16.562   7.891   7.781  0.2896 -0.1293  0.1518
    1OPC    GL170976  16.771   7.836   7.522 -0.0971  0.0750  0.4065
    1OPC    GL270977  16.941   7.879   7.301  0.0497  0.1660  0.0124
    1OPC    C1B70978  16.864   7.768   6.926 -0.0805  0.3425 -0.0640
    1OPC    D2B70979  17.026   7.633   6.461 -0.3377  0.0658 -0.4664
    1OPC    C3B70980  17.175   7.223   6.210  0.0238  0.0212 -0.1151
    1OPC    C4B70981  17.153   7.017   5.990 -0.0331  0.0642  0.5471
    1OPC    NC370982  13.235   4.992   8.397  0.1120  0.0853 -0.1851
    1OPC    PO470983  13.412   4.590   8.449 -0.1630  0.0132  0.0840
    1OPC    GL170984  13.573   4.744   7.993  0.0103 -0.0342 -0.0966
    1OPC    GL270985  13.884   4.717   7.678 -0.0952  0.0275  0.0253
    1OPC    C1B70986  14.188   4.527   7.355 -0.0632  0.0958  0.1877
    1OPC    D2B70987  14.230   4.665   6.831  0.0793 -0.1106  0.1032
    1OPC    C3B70988  14.383   4.826   6.482  0.3332  0.1097 -0.0083
    1OPC    C4B70989  14.516   4.875   6.080 -0.1790  0.0012  0.0173
    1OPC    NC370990  21.957  25.536   6.815 -0.3720 -0.1785  0.2861
    1OPC    PO470991  21.977  25.903   6.665 -0.1558  0.1022 -0.0590
    1OPC    GL170992  21.954  25.711   6.260  0.2309 -0.0940 -0.0477
    1OPC    GL270993  22.072  25.543   6.034 -0.0516  0.0648 -0.0390
    1OPC    C1B70994  22.351  25.647   5.695 -0.4642 -0.0246  0.1789
    1OPC    D2B70995  22.614  25.993   5.477 -0.1471  0.2174 -0.0746
    1OPC    C3B70996  22.576  26.065   5.068 -0.0807  0.4682  0.0703
    1OPC    C4B70997  22.911  26.167   4.789  0.2242 -0.1187 -0.0660
    1OPC    NC370998  13.318  16.517   6.214  0.0786 -0.1776 -0.0018
    1OPC    PO470999  13.619  16.830   6.047  0.0623  0.0404  0.1948
    1OPC    GL171000  13.243  17.019   5.772 -0.0012 -0.0284  0.1304
    1OPC    GL271001  12.908  17.165   5.632  0.1136 -0.3091  0.2660
    1OPC    C1B71002  12.767  17.490   5.316  0.0473  0.0197 -0.1817
    1OPC    D2B71003  12.661  17.553   4.941  0.0441 -0.1935  0.1696
    1OPC    C3B71004  12.741  17.348   4.530 -0.0828  0.2999 -0.0773
    1OPC    C4B71005  12.968  17.222   4.183  0.3825  0.0053  0.0991
    1OPC    NC371006  18.418   8.165   8.214  0.2950 -0.3107 -0.0492
    1OPC    PO471007  18.091   8.435   8.049 -0.0555  0.2984  0.1346
    1OPC    GL171008  18.126   8.161   7.756 -0.0498  0.1370  0.1474
    1OPC    GL271009  18.212   8.096   7.379 -0.0577 -0.1777 -0.0678
    1OPC    C1B71010  18.278   8.124   6.989 -0.0804 -0.2978 -0.0838
    1OPC    D2B71011  18.223   8.263   6.686  0.1493 -0.1141  0.0257
    1OPC    C3B71012  18.262   8.129   6.299 -0.5572  0.1151 -0.1057
    1OPC    C4B71013  18.251   7.962   5.892  0.0289 -0.1454 -0.4981
    1OPC    NC371014  13.414  12.437   7.531  0.1016 -0.1914 -0.0033
    1OPC    PO471015  13.753  12.519   7.325 -0.2033  0.3480  0.3086
    1OPC    GL171016  13.709  12.776   6.884  0.0187  0.0556  0.2292
    1OPC    GL271017  13.699  12.828   6.571 -0.2040  0.1774 -0.3231
    1OPC    C1B71018  13.538  12.723   6.094  0.0310  0.0628 -0.2204
    1OPC    D2B71019  13.441  12.592   5.776 -0.0105 -0.1105  0.0487
    1OPC    C3B71020  13.471  12.542   5.313 -0.0250 -0.1008 -0.1171
    1OPC    C4B71021  13.550  12.389   4.891  0.0397 -0.1870 -0.1117
    1OPC    NC371022  20.684  10.104   8.105 -0.3706 -0.2778  0.0865
    1OPC    PO471023  20.459   9.833   7.827 -0.0348  0.0726 -0.1250
    1OPC    GL171024  20.578   9.526   7.470  0.1232 -0.1622 -0.0151
    1OPC    GL271025  20.542   9.510   7.077  0.2190 -0.3718  0.0381
    1OPC    C1B71026  20.595   9.423   6.690 -0.0760  0.0471 -0.0501
    1OPC    D2B71027  20.389   9.346   6.361  0.2215 -0.0588  0.0283
    1OPC    C3B71028  20.487   9.291   5.880 -0.0700  0.0600  0.0324
    1OPC    C4B71029  20.657   9.195   5.432 -0.0993 -0.1875  0.1066
    1OPC    NC371030  28.867   9.590   6.986 -0.0018  0.1127  0.1241
    1OPC    PO471031  28.619   9.241   6.835 -0.1172 -0.2626 -0.0294
    1OPC    GL171032  28.524   9.384   6.321  0.0771  0.0825  0.0925
    1OPC    GL271033  28.304   9.399   5.988 -0.2224  0.1796  0.0127
    1OPC    C1B71034  28.028   9.297   5.597  0.0674  0.2119  0.0363
    1OPC    D2B71035  27.626   9.362   5.417 -0.0062 -0.2347 -0.3916
    1OPC    C3B71036  27.501   9.094   5.143 -0.1036 -0.2015  0.0261
    1OPC    C4B71037  27.420   8.840   4.797 -0.1652  0.0269 -0.2654
    1OPC    NC371038  19.531  28.721   7.073 -0.1751 -0.1031 -0.1156
    1OPC    PO471039  19.535  29.109   7.217  0.2177 -0.1901  0.0715
    1OPC    GL171040  19.559  29.125   6.736  0.1895  0.0461  0.2949
    1OPC    GL271041  19.371  29.312   6.549 -0.1173 -0.2608  0.0505
    1OPC    C1B71042  18.984  29.498   6.589 -0.2161  0.2256 -0.1233
    1OPC    D2B71043  18.624  29.638   6.479 -0.1606 -0.3863 -0.0076
    1OPC    C3B71044  18.492   0.131   6.535 -0.1959 -0.2235 -0.1920
    1OPC    C4B71045  18.639   0.603   6.626 -0.1460  0.1565 -0.0166
    1OPC    NC371046  17.232  10.790   7.989 -0.1078  0.0289 -0.0553
    1OPC    PO471047  17.436  10.696   7.620 -0.2876 -0.1063 -0.1167
    1OPC    GL171048  17.520  10.558   7.267  0.0681 -0.0242  0.0024
    1OPC    GL271049  17.674  10.483   6.994  0.0769 -0.3412 -0.0597
    1OPC    C1B71050  17.873  10.484   6.586 -0.0187  0.1272  0.0604
    1OPC    D2B71051  17.748  10.415   6.176  0.2355 -0.0479 -0.0090
    1OPC    C3B71052  17.960  10.530   5.899  0.4698  0.2303  0.1669
    1OPC    C4B71053  17.699  10.450   5.634 -0.1187 -0.2329 -0.1890
    1OPC    NC371054   3.380  22.956   6.452  0.1475 -0.1811 -0.0658
    1OPC    PO471055   3.206  22.636   6.330 -0.0977 -0.0401  0.2995
    1OPC    GL171056   2.835  22.636   6.055  0.0611 -0.1120 -0.4728
    1OPC    GL271057   2.845  22.763   5.794  0.1495  0.2643 -0.1705
    1OPC    C1B71058   2.630  22.672   5.487  0.1379 -0.1504 -0.0190
    1OPC    D2B71059   2.563  22.824   5.124 -0.0593  0.1005 -0.1538
    1OPC    C3B71060   2.220  23.140   5.242 -0.3394  0.0829 -0.0835
    1OPC    C4B71061   1.806  23.395   5.104  0.2623 -0.0394 -0.0850
    1OPC    NC371062   8.468  20.601   5.790  0.0161  0.0392 -0.0270
    1OPC    PO471063   8.397  20.850   6.187  0.0091 -0.1099 -0.1611
    1OPC    GL171064   8.644  21.027   5.942  0.0689  0.2597 -0.0368
    1OPC    GL271065   8.743  20.980   5.636  0.3183  0.0671  0.0087
    1OPC    C1B71066   8.633  20.927   5.179 -0.0423 -0.2467  0.0495
    1OPC    D2B71067   8.652  20.507   4.884  0.0688  0.0833 -0.2262
    1OPC    C3B71068   9.022  20.625   4.619 -0.0516  0.2165 -0.0989
    1OPC    C4B71069   9.418  20.747   4.501 -0.0500 -0.2408 -0.0783
    1OPC    NC371070  19.247  14.096   7.146  0.0605  0.1599  0.2403
    1OPC    PO471071  19.563  14.196   6.864 -0.2704  0.1687 -0.1228
    1OPC    GL171072  19.468  14.276   6.446  0.1898  0.1071 -0.0760
    1OPC    GL271073  19.440  13.992   6.219  0.0714 -0.0042  0.0748
    1OPC    C1B71074  19.390  13.620   5.999 -0.1625  0.1204 -0.0426
    1OPC    D2B71075  19.171  13.361   5.745 -0.2032  0.1174  0.0876
    1OPC    C3B71076  18.988  13.441   5.349 -0.0397 -0.2655  0.1873
    1OPC    C4B71077  18.669  13.626   5.046 -0.0252 -0.0685  0.0449
    1OPC    NC371078   6.466  13.667   6.815  0.0080  0.0147 -0.1605
    1OPC    PO471079   6.336  13.191   6.702 -0.1601 -0.0469 -0.0100
    1OPC    GL171080   6.210  13.134   6.326 -0.1464  0.0016  0.3214
    1OPC    GL271081   6.028  13.289   6.060  0.0180 -0.0829  0.1735
    1OPC    C1B71082   5.983  13.323   5.633  0.3057 -0.1631 -0.2478
    1OPC    D2B71083   5.977  13.181   5.163 -0.0814 -0.2974 -0.0262
    1OPC    C3B71084   6.367  13.035   5.033  0.0756 -0.0996  0.1657
    1OPC    C4B71085   6.811  12.914   4.762  0.0658  0.1562  0.0180
    1OPC    NC371086  14.309   7.039   8.382  0.1721  0.1261 -0.1858
    1OPC    PO471087  14.076   7.030   8.048  0.1361  0.2481 -0.1367
    1OPC    GL171088  13.969   7.234   7.632 -0.2258 -0.0842 -0.1647
    1OPC    GL271089  13.896   7.529   7.362  0.3254 -0.2608 -0.1100
    1OPC    C1B71090  13.648   7.503   7.052  0.1163  0.0822  0.1080
    1OPC    D2B71091  13.378   7.624   6.740 -0.1906  0.0885 -0.2608
    1OPC    C3B71092  13.082   7.291   6.597 -0.0406  0.0783  0.1592
    1OPC    C4B71093  12.713   7.238   6.364 -0.0719  0.1475 -0.0921
    1OPC    NC371094  18.023  15.450   7.105  0.2128  0.0266 -0.2283
    1OPC    PO471095  18.199  15.514   6.724 -0.0647  0.0921  0.1854
    1OPC    GL171096  17.977  15.326   6.329  0.2067 -0.4125  0.1041
    1OPC    GL271097  18.053  15.144   6.078  0.2571 -0.1257 -0.1402
    1OPC    C1B71098  18.116  15.282   5.652  0.0708  0.0393  0.1523
    1OPC    D2B71099  17.936  15.565   5.324 -0.0756  0.0914  0.0865
    1OPC    C3B71100  18.039  15.521   4.867 -0.1266  0.0653  0.2179
    1OPC    C4B71101  17.911  15.482   4.397  0.0492  0.1095 -0.2206
    1OPC    NC371102  12.050   1.978   7.485  0.1344  0.0167 -0.1701
    1OPC    PO471103  11.806   2.331   7.323 -0.1708  0.2229  0.1744
    1OPC    GL171104  11.973   2.633   7.107 -0.2144 -0.0087  0.0439
    1OPC    GL271105  12.336   2.798   7.148  0.0113 -0.0246  0.1116
    1OPC    C1B71106  12.629   2.806   6.856 -0.0178 -0.1959  0.0294
    1OPC    D2B71107  12.876   2.920   6.497 -0.2251  0.1387 -0.1582
    1OPC    C3B71108  12.896   2.576   6.152 -0.1578  0.1642 -0.1031
    1OPC    C4B71109  12.920   2.396   5.828  0.2652 -0.0939 -0.3375
    1OPC    NC371110  16.555   3.529   8.290  0.0074 -0.3044 -0.1186
    1OPC    PO471111  16.796   3.940   8.253 -0.1641  0.2447  0.0638
    1OPC    GL171112  16.885   4.235   7.942 -0.0033 -0.0540 -0.2199
    1OPC    GL271113  16.868   4.403   7.553  0.0488 -0.0270  0.2002
    1OPC    C1B71114  16.905   4.407   7.114 -0.2271  0.0213  0.1467
    1OPC    D2B71115  17.050   4.420   6.691  0.1896 -0.0695  0.1672
    1OPC    C3B71116  17.309   4.148   6.484  0.0082  0.0061  0.0897
    1OPC    C4B71117  17.249   3.681   6.378 -0.1501 -0.0014  0.1342
    1OPC    NC371118  29.712   7.059   7.408 -0.2490  0.1217 -0.2124
    1OPC    PO471119  29.457   6.838   7.065 -0.2336 -0.1016  0.0744
    1OPC    GL171120  29.508   6.919   6.685 -0.0355 -0.1239  0.1940
    1OPC    GL271121  29.269   7.012   6.425  0.3418 -0.0396 -0.2514
    1OPC    C1B71122  29.318   7.299   6.138 -0.0456  0.2543 -0.0512
    1OPC    D2B71123  29.198   7.437   5.792 -0.0783 -0.0122  0.1403
    1OPC    C3B71124  28.974   7.094   5.633  0.1167 -0.0433  0.1562
    1OPC    C4B71125  28.655   6.808   5.459 -0.1343 -0.1111 -0.2280
    1OPC    NC371126  12.406  26.486   6.765 -0.1471  0.1637  0.0512
    1OPC    PO471127  12.369  26.782   6.328  0.2467  0.3866  0.3750
    1OPC    GL171128  12.515  26.733   5.897  0.0467  0.1833 -0.1668
    1OPC    GL271129  12.734  26.617   5.735  0.2379 -0.0414  0.0580
    1OPC    C1B71130  12.872  26.450   5.255  0.0410 -0.0410 -0.0363
    1OPC    D2B71131  12.766  26.364   4.819 -0.0735  0.1890 -0.1455
    1OPC    C3B71132  13.128  26.167   4.615  0.0937  0.2062  0.0920
    1OPC    C4B71133  13.341  25.801   4.308  0.4933  0.0710 -0.1286
    1OPC    NC371134  11.801  22.823   5.295  0.0321  0.1134  0.1668
    1OPC    PO471135  11.329  22.698   5.310 -0.4013  0.0672 -0.1254
    1OPC    GL171136  11.319  22.210   5.180  0.1146 -0.0890 -0.0065
    1OPC    GL271137  11.331  21.807   5.219 -0.1437  0.0585  0.3184
    1OPC    C1B71138  11.345  21.557   4.917 -0.2783 -0.0713  0.0773
    1OPC    D2B71139  11.307  21.565   4.492  0.1581  0.0743  0.1430
    1OPC    C3B71140  11.719  21.644   4.330  0.1962 -0.2225 -0.2261
    1OPC    C4B71141  11.696  22.048   4.045  0.1597  0.4521 -0.0852
    1OPC    NC371142  11.077  10.949   7.029 -0.0321 -0.4190  0.2299
    1OPC    PO471143  10.642  11.102   6.783  0.1953  0.0921 -0.3297
    1OPC    GL171144  10.568  10.779   6.377 -0.0809 -0.2512 -0.2488
    1OPC    GL271145  10.591  10.695   6.173 -0.1209  0.1162  0.2465
    1OPC    C1B71146  10.569  10.598   5.808  0.2360 -0.0334 -0.4108
    1OPC    D2B71147  10.536  10.549   5.327  0.2694  0.1930  0.0615
    1OPC    C3B71148  10.502  10.253   5.154  0.0198  0.2117  0.0422
    1OPC    C4B71149  10.277   9.963   4.793 -0.3053 -0.0718  0.1152
    1OPC    NC371150   0.996   8.830   6.191 -0.0544  0.1636  0.0923
    1OPC    PO471151   1.370   8.732   6.249 -0.1886 -0.2212 -0.0043
    1OPC    GL171152   1.508   8.939   5.847 -0.1363 -0.1795 -0.0802
    1OPC    GL271153   1.705   9.084   5.651 -0.1354  0.0482  0.0622
    1OPC    C1B71154   2.147   9.208   5.718 -0.0556  0.4608  0.1157
    1OPC    D2B71155   2.471   9.283   5.468 -0.1088 -0.1057 -0.1006
    1OPC    C3B71156   2.338   9.287   4.888  0.0765  0.0721 -0.2628
    1OPC    C4B71157   2.135   9.428   4.522 -0.2195 -0.2054 -0.1895
    1OPC    NC371158  25.585  15.053   7.105  0.2114 -0.0558 -0.0194
    1OPC    PO471159  25.704  14.723   7.226  0.3702 -0.2169 -0.1579
    1OPC    GL171160  25.716  14.645   6.832 -0.1099 -0.0124  0.1396
    1OPC    GL271161  25.859  14.495   6.585 -0.0559 -0.2511 -0.1059
    1OPC    C1B71162  25.813  14.585   6.124 -0.0531  0.3204 -0.0155
    1OPC    D2B71163  25.797  14.505   5.647  0.0573 -0.1209 -0.2403
    1OPC    C3B71164  25.752  14.871   5.279 -0.0203 -0.0701  0.0564
    1OPC    C4B71165  25.362  15.179   5.250 -0.1986 -0.0705 -0.1834
    1OPC    NC371166   0.855  12.885   6.719 -0.0045 -0.1836 -0.0648
    1OPC    PO471167   0.901  12.575   7.034  0.2668  0.1929 -0.0091
    1OPC    GL171168   1.172  12.560   6.636  0.1213  0.4128 -0.0437
    1OPC    GL271169   1.152  12.411   6.315 -0.0033  0.3392  0.3731
    1OPC    C1B71170   1.015  12.507   5.871 -0.2070 -0.1450 -0.1280
    1OPC    D2B71171   0.803  12.529   5.437 -0.2447  0.2174 -0.0570
    1OPC    C3B71172   0.603  12.027   5.394  0.1127 -0.0505 -0.0053
    1OPC    C4B71173   0.884  11.664   5.593 -0.0615  0.0302 -0.1416
    1OPC    NC371174  21.186  25.281   6.613 -0.1712 -0.0085  0.1173
    1OPC    PO471175  21.268  25.422   6.179 -0.0695 -0.1302 -0.0438
    1OPC    GL171176  21.495  25.620   5.985 -0.0606  0.2469 -0.1838
    1OPC    GL271177  21.678  25.693   5.778 -0.0624 -0.2965  0.1021
    1OPC    C1B71178  21.880  25.573   5.431 -0.1461  0.2049  0.0448
    1OPC    D2B71179  22.289  25.605   5.133 -0.0088  0.1914 -0.1112
    1OPC    C3B71180  22.513  25.262   4.934  0.1914  0.2911  0.0179
    1OPC    C4B71181  22.763  24.865   4.686 -0.0573  0.2760  0.0887
    1OPC    NC371182  10.311  27.041   6.822  0.3931  0.1507 -0.0024
    1OPC    PO471183  10.672  27.133   6.665  0.0189 -0.2975 -0.0782
    1OPC    GL171184  11.010  26.936   6.353 -0.0778  0.0385 -0.4124
    1OPC    GL271185  10.977  27.152   6.115  0.2646 -0.3884 -0.4660
    1OPC    C1B71186  11.228  27.466   5.838 -0.0054  0.0130  0.0750
    1OPC    D2B71187  11.310  27.803   5.439 -0.1171  0.2056  0.1025
    1OPC    C3B71188  11.763  27.823   5.248 -0.0555  0.0638 -0.1948
    1OPC    C4B71189  11.824  28.091   4.902  0.0685  0.4902 -0.1251
    1OPC    NC371190  23.806  15.589   6.860  0.3487 -0.0123  0.0561
    1OPC    PO471191  23.382  15.816   6.792 -0.0129 -0.0466  0.2170
    1OPC    GL171192  23.558  15.722   6.415  0.0633 -0.0880  0.3197
    1OPC    GL271193  23.532  15.636   6.179  0.4900  0.1865 -0.0835
    1OPC    C1B71194  23.572  15.512   5.815  0.0120 -0.3741  0.3122
    1OPC    D2B71195  23.673  15.471   5.336 -0.2727 -0.2027  0.0713
    1OPC    C3B71196  23.844  15.507   4.911 -0.1703  0.1520 -0.1001
    1OPC    C4B71197  23.813  15.323   4.550  0.1611  0.0544  0.0023
    1OPC    NC371198  20.893  10.760   7.571 -0.0104  0.4826 -0.2400
    1OPC    PO471199  20.947  10.486   7.308 -0.0838  0.0485 -0.0796
    1OPC    GL171200  20.688  10.370   7.050  0.3196  0.0884  0.0744
    1OPC    GL271201  20.607  10.078   6.921 -0.1984  0.0007  0.0316
    1OPC    C1B71202  20.567   9.895   6.475 -0.0085 -0.2657 -0.0869
    1OPC    D2B71203  20.553   9.763   6.035 -0.0247 -0.3213 -0.2270
    1OPC    C3B71204  20.761   9.711   5.635  0.1768 -0.0775  0.0434
    1OPC    C4B71205  21.081   9.479   5.392 -0.0540 -0.1869 -0.0264
    1OPC    NC371206  19.466  20.900   6.473  0.0426 -0.4196 -0.0069
    1OPC    PO471207  19.411  20.727   6.033 -0.1724  0.1967 -0.1507
    1OPC    GL171208  19.282  20.638   5.626  0.0729 -0.1425  0.0928
    1OPC    GL271209  19.265  20.744   5.424 -0.0026 -0.2423  0.1223
    1OPC    C1B71210  19.533  20.774   5.113 -0.0459  0.1231 -0.3730
    1OPC    D2B71211  19.766  20.694   4.678 -0.0850  0.0242 -0.3411
    1OPC    C3B71212  19.840  20.893   4.406  0.1774 -0.1726  0.4594
    1OPC    C4B71213  20.093  21.018   3.988  0.0660 -0.2347 -0.0423
    1OPC    NC371214  29.298  19.684   6.154  0.0979 -0.2266  0.2505
    1OPC    PO471215  28.899  19.556   6.343  0.0704 -0.1249 -0.0716
    1OPC    GL171216  28.890  19.472   5.947  0.1794 -0.3286  0.6328
    1OPC    GL271217  28.631  19.334   5.806  0.0649  0.2717  0.0988
    1OPC    C1B71218  28.572  19.095   5.389  0.1520  0.0946  0.0118
    1OPC    D2B71219  28.621  18.680   5.091  0.1821  0.1574  0.0030
    1OPC    C3B71220  28.568  18.795   4.642 -0.2578  0.1340 -0.3573
    1OPC    C4B71221  28.226  18.878   4.510  0.0434 -0.2920 -0.0385
    1OPC    NC371222  18.559  18.679   6.691 -0.2752  0.1002  0.0255
    1OPC    PO471223  18.408  19.011   6.365  0.2789  0.1246  0.0668
    1OPC    GL171224  18.527  18.969   5.936  0.3693  0.0566 -0.2363
    1OPC    GL271225  18.654  18.802   5.662 -0.0961  0.0754  0.1126
    1OPC    C1B71226  18.785  18.552   5.167  0.1124 -0.1768  0.2300
    1OPC    D2B71227  18.818  18.303   4.708  0.2487  0.2604 -0.0646
    1OPC    C3B71228  18.584  18.222   4.307  0.0012 -0.1657 -0.3406
    1OPC    C4B71229  18.535  18.068   3.847  0.1040 -0.2659  0.0354
    1OPC    NC371230  26.670  25.791   7.068  0.0889  0.2491  0.0577
    1OPC    PO471231  26.588  25.419   6.863 -0.0060  0.1066 -0.2254
    1OPC    GL171232  26.628  25.245   6.484 -0.2320  0.0158 -0.1517
    1OPC    GL271233  26.467  25.075   6.237  0.0209  0.2179 -0.0534
    1OPC    C1B71234  26.136  24.867   5.918 -0.2325 -0.1070 -0.1227
    1OPC    D2B71235  25.894  24.787   5.497  0.0637  0.0614  0.1026
    1OPC    C3B71236  25.907  24.885   5.113  0.0204  0.1930  0.1118
    1OPC    C4B71237  25.528  25.006   4.750 -0.0321 -0.1908  0.1359
    1OPC    NC371238  22.808   8.883   7.819  0.1205  0.1541  0.0035
    1OPC    PO471239  22.591   8.851   7.399 -0.0219  0.3390 -0.1408
    1OPC    GL171240  22.505   8.556   7.019  0.1000 -0.3761  0.0817
    1OPC    GL271241  22.763   8.583   6.818  0.3203 -0.3332 -0.0381
    1OPC    C1B71242  22.902   8.769   6.416 -0.2052  0.0593  0.0096
    1OPC    D2B71243  23.205   9.044   6.318 -0.1984  0.0804  0.0300
    1OPC    C3B71244  23.398   9.054   5.878  0.1492  0.6492  0.1958
    1OPC    C4B71245  23.545   9.265   5.495  0.2206 -0.3732  0.1884
    1OPC    NC371246   7.678  14.513   6.414  0.2424  0.0813  0.0659
    1OPC    PO471247   7.678  14.504   5.995 -0.0620 -0.2484  0.0272
    1OPC    GL171248   7.411  14.428   5.584  0.0238 -0.3156 -0.1513
    1OPC    GL271249   7.273  14.237   5.315  0.4606 -0.1506  0.0636
    1OPC    C1B71250   7.220  14.149   4.830 -0.1985 -0.0292 -0.1516
    1OPC    D2B71251   6.965  13.843   4.732  0.0814  0.1665  0.0585
    1OPC    C3B71252   6.814  13.688   4.389  0.1883  0.0458 -0.0755
    1OPC    C4B71253   7.005  13.812   4.042  0.1298  0.0335  0.0945
    1OPC    NC371254  24.405   3.225   7.514 -0.2173  0.5278  0.0617
    1OPC    PO471255  24.201   3.551   7.780  0.2289 -0.2706 -0.0376
    1OPC    GL171256  24.100   3.546   7.349 -0.2132  0.0613 -0.1580
    1OPC    GL271257  24.277   3.582   7.086 -0.0238 -0.2030 -0.0824
    1OPC    C1B71258  24.211   3.862   6.771  0.1818  0.0491 -0.1074
    1OPC    D2B71259  23.984   4.247   6.709 -0.2931  0.1206  0.2258
    1OPC    C3B71260  24.006   4.452   6.288 -0.2116 -0.3481 -0.0195
    1OPC    C4B71261  24.371   4.618   6.014  0.2076  0.2512  0.1405
    1OPC    NC371262  14.646  29.012   7.451 -0.0696 -0.0168 -0.0696
    1OPC    PO471263  14.316  28.826   7.308  0.2202  0.0515 -0.0182
    1OPC    GL171264  14.533  28.802   6.765  0.0803  0.0565 -0.0424
    1OPC    GL271265  14.696  28.854   6.423 -0.1172  0.2144 -0.0958
    1OPC    C1B71266  14.935  28.920   6.039 -0.3750  0.2021  0.0065
    1OPC    D2B71267  15.083  28.688   5.749  0.0568 -0.1513  0.0895
    1OPC    C3B71268  15.276  28.734   5.359 -0.1159 -0.2999 -0.1290
    1OPC    C4B71269  15.588  28.775   5.059  0.2020 -0.2526  0.1224
    1OPC    NC371270  22.921  14.859   7.213  0.2071  0.0362 -0.0653
    1OPC    PO471271  22.917  14.504   6.954 -0.0606 -0.0769  0.0148
    1OPC    GL171272  22.744  14.616   6.541  0.0988 -0.4622  0.3612
    1OPC    GL271273  22.891  14.743   6.266 -0.1695  0.0168  0.0605
    1OPC    C1B71274  22.673  14.841   5.901 -0.3193 -0.0971 -0.0480
    1OPC    D2B71275  22.501  14.666   5.521  0.0791 -0.2401  0.3484
    1OPC    C3B71276  22.872  14.616   5.274  0.1913  0.0745 -0.0714
    1OPC    C4B71277  23.013  14.765   4.904  0.2629  0.0938 -0.2673
    1OPC    NC371278  22.748  18.359   6.833  0.0434  0.2103  0.0277
    1OPC    PO471279  22.739  18.496   6.463  0.1248 -0.0057 -0.1364
    1OPC    GL171280  22.834  18.490   6.035  0.1180 -0.1574  0.0517
    1OPC    GL271281  23.068  18.554   5.741  0.1412 -0.3213  0.1785
    1OPC    C1B71282  23.359  18.609   5.331  0.0585 -0.2147 -0.0929
    1OPC    D2B71283  23.309  18.619   4.889 -0.0890 -0.1665  0.1379
    1OPC    C3B71284  23.172  18.899   4.672 -0.0968 -0.1017 -0.0790
    1OPC    C4B71285  22.982  18.982   4.297 -0.0925  0.2243  0.0223
    1OPC    NC371286  25.947   3.113   7.043 -0.1019 -0.0159 -0.1706
    1OPC    PO471287  25.613   2.961   6.865  0.1316 -0.0682  0.0302
    1OPC    GL171288  25.312   2.841   6.504  0.3207  0.2867  0.2276
    1OPC    GL271289  25.144   3.120   6.347 -0.0529  0.0768 -0.3413
    1OPC    C1B71290  25.155   3.322   5.891  0.4575 -0.2010  0.2148
    1OPC    D2B71291  25.463   3.524   5.644  0.0693  0.0233  0.0008
    1OPC    C3B71292  25.794   3.351   5.419  0.0617 -0.1441  0.2203
    1OPC    C4B71293  26.183   3.068   5.209  0.0213  0.2716  0.0213
    1OPC    NC371294   1.276  20.436   6.382 -0.0167  0.2979  0.0957
    1OPC    PO471295   1.375  19.986   6.515 -0.0169 -0.3013 -0.0278
    1OPC    GL171296   1.272  19.770   6.141  0.0406  0.3769 -0.3492
    1OPC    GL271297   1.378  19.546   5.966  0.1107  0.0854 -0.1840
    1OPC    C1B71298   1.586  19.301   5.645  0.2871  0.0719 -0.0195
    1OPC    D2B71299   1.899  19.146   5.234 -0.1761 -0.0095 -0.3715
    1OPC    C3B71300   2.073  18.682   5.254 -0.1129  0.1964 -0.0497
    1OPC    C4B71301   1.912  18.380   4.975 -0.1074  0.0429  0.0868
    1OPC    NC371302  16.639  15.073   6.429 -0.3610 -0.0894 -0.0788
    1OPC    PO471303  17.046  15.308   6.292  0.2020 -0.2391  0.0594
    1OPC    GL171304  17.019  15.145   6.076  0.1580  0.0077  0.2055
    1OPC    GL271305  17.116  15.204   5.756  0.0671  0.2252 -0.1940
    1OPC    C1B71306  17.331  15.317   5.403 -0.2441  0.1736  0.1998
    1OPC    D2B71307  17.457  15.247   4.982 -0.0350 -0.0531 -0.0737
    1OPC    C3B71308  17.259  15.345   4.624  0.0558  0.3367  0.0968
    1OPC    C4B71309  17.084  15.470   4.216  0.2129 -0.2462 -0.0020
    1OPC    NC371310  11.098  10.166   6.735 -0.4833 -0.2005 -0.0070
    1OPC    PO471311  11.261  10.104   7.112  0.2818 -0.1227  0.4801
    1OPC    GL171312  11.511   9.728   6.963  0.0701 -0.0165  0.2972
    1OPC    GL271313  11.684   9.667   6.658 -0.0429 -0.0441 -0.1087
    1OPC    C1B71314  11.515   9.451   6.258 -0.0012  0.0283  0.4620
    1OPC    D2B71315  11.501   9.128   5.964  0.1010  0.5200  0.4933
    1OPC    C3B71316  11.715   9.146   5.596  0.2331  0.1545 -0.4159
    1OPC    C4B71317  12.115   9.374   5.319  0.3154  0.3299 -0.1997
    1OPC    NC371318   1.019  15.234   6.938  0.1357 -0.0057 -0.3591
    1OPC    PO471319   1.352  15.333   6.701 -0.2520 -0.3328 -0.0674
    1OPC    GL171320   1.234  15.041   6.458  0.2274  0.0507 -0.0323
    1OPC    GL271321   0.935  15.081   6.296 -0.0333  0.2178  0.1534
    1OPC    C1B71322   0.667  14.970   5.899 -0.0409 -0.1000  0.1905
    1OPC    D2B71323   0.656  15.095   5.520  0.2252 -0.0982  0.5625
    1OPC    C3B71324   0.665  14.766   5.047  0.3091 -0.1070  0.0212
    1OPC    C4B71325   0.731  14.593   4.613 -0.2670 -0.2164  0.0139
    1OPC    NC371326  24.726  15.819   7.140  0.0124 -0.0902  0.0733
    1OPC    PO471327  24.651  15.475   6.930  0.2492 -0.1030  0.0400
    1OPC    GL171328  24.888  15.454   6.618  0.0271  0.0449 -0.1447
    1OPC    GL271329  24.933  15.544   6.433 -0.0080 -0.1923  0.0502
    1OPC    C1B71330  24.983  15.644   5.977 -0.0026 -0.1154  0.1661
    1OPC    D2B71331  25.150  15.862   5.659 -0.2521  0.2773  0.1040
    1OPC    C3B71332  25.168  15.743   5.332 -0.0073  0.0951 -0.0219
    1OPC    C4B71333  25.404  15.569   4.911  0.2531 -0.4690  0.0832
    1OPC    NC371334  24.665  19.323   6.614 -0.0219  0.0548  0.0077
    1OPC    PO471335  25.041  19.082   6.563 -0.3889 -0.3499  0.0503
    1OPC    GL171336  24.846  18.767   6.281  0.2259 -0.0468  0.1422
    1OPC    GL271337  24.782  18.495   6.001 -0.0391  0.0657 -0.3375
    1OPC    C1B71338  24.774  18.501   5.643 -0.2276 -0.0419 -0.2007
    1OPC    D2B71339  24.734  18.446   5.149  0.2620 -0.0369 -0.0701
    1OPC    C3B71340  24.918  18.219   4.873 -0.1297 -0.1661 -0.4497
    1OPC    C4B71341  25.158  17.950   4.699  0.0944 -0.0435 -0.0966
    1OPC    NC371342  13.902   8.534   8.176  0.0322  0.0024  0.2035
    1OPC    PO471343  13.708   8.783   7.878 -0.0998  0.0122 -0.2029
    1OPC    GL171344  13.628   8.977   7.415 -0.2117 -0.2199  0.3535
    1OPC    GL271345  13.463   8.957   7.144  0.1765  0.0451  0.0205
    1OPC    C1B71346  13.067   8.719   6.950 -0.1554  0.0326 -0.0120
    1OPC    D2B71347  12.764   8.345   6.979  0.1196  0.0521  0.1395
    1OPC    C3B71348  12.678   8.099   6.578  0.0735 -0.0371 -0.1565
    1OPC    C4B71349  12.512   7.726   6.290  0.1662  0.0390  0.0397
    1OPC    NC371350  28.211  17.065   6.978  0.1901  0.1932 -0.0957
    1OPC    PO471351  28.503  17.341   6.790  0.2078 -0.1207 -0.1447
    1OPC    GL171352  28.608  17.347   6.356  0.1606 -0.2179  0.2188
    1OPC    GL271353  28.554  17.441   6.059  0.1254 -0.0504 -0.1668
    1OPC    C1B71354  28.361  17.324   5.695  0.2058  0.2683  0.0494
    1OPC    D2B71355  28.127  17.118   5.436  0.0391 -0.1190  0.1503
    1OPC    C3B71356  27.649  17.088   5.387 -0.1104  0.1367  0.2085
    1OPC    C4B71357  27.376  17.045   5.079  0.1334 -0.3311  0.0749
    1OPC    NC371358   7.068  23.661   6.249  0.0786  0.2784 -0.0463
    1OPC    PO471359   6.829  23.400   5.864  0.0034 -0.0095  0.2055
    1OPC    GL171360   6.940  23.379   5.410 -0.0681 -0.0769  0.0114
    1OPC    GL271361   7.058  23.201   5.089  0.0671  0.0308  0.4594
    1OPC    C1B71362   7.056  23.078   4.553  0.1791 -0.0486  0.0755
    1OPC    D2B71363   6.996  23.322   4.189 -0.2445 -0.0997  0.3520
    1OPC    C3B71364   7.370  23.480   4.106 -0.1586  0.4432  0.2996
    1OPC    C4B71365   7.773  23.412   3.845  0.1270  0.0421 -0.0744
    1OPC    NC371366  26.340  13.779   7.917  0.0165  0.4534  0.1431
    1OPC    PO471367  26.617  13.747   7.488  0.1681  0.2656 -0.1146
    1OPC    GL171368  26.595  14.028   7.060 -0.0356  0.1527  0.1810
    1OPC    GL271369  26.507  14.282   6.775 -0.1626 -0.2839  0.0636
    1OPC    C1B71370  26.367  14.337   6.349  0.1707 -0.0426 -0.0824
    1OPC    D2B71371  26.133  14.282   5.980 -0.1350 -0.0235  0.2238
    1OPC    C3B71372  26.214  14.248   5.603  0.2359 -0.5607  0.2472
    1OPC    C4B71373  26.104  14.432   5.231  0.0563 -0.0120 -0.3117
    1OPC    NC371374   4.840   9.288   7.194 -0.3495 -0.0982  0.2048
    1OPC    PO471375   5.190   9.539   7.087 -0.1109  0.0231  0.0732
    1OPC    GL171376   5.234   9.466   6.637  0.0411  0.1865 -0.3253
    1OPC    GL271377   5.224   9.313   6.348 -0.0741 -0.2068  0.0291
    1OPC    C1B71378   5.399   9.371   6.005 -0.1608 -0.0633  0.1806
    1OPC    D2B71379   5.419   9.328   5.511  0.0284 -0.0762 -0.2320
    1OPC    C3B71380   5.477   9.495   5.039  0.1057  0.1581  0.1164
    1OPC    C4B71381   5.247   9.590   4.691  0.2587  0.1517  0.0133
    1OPC    NC371382   7.581   1.835   7.287 -0.0269 -0.0536 -0.0696
    1OPC    PO471383   7.847   1.709   6.895  0.1581 -0.2198 -0.0122
    1OPC    GL171384   8.073   1.613   6.524 -0.1122  0.2434 -0.0931
    1OPC    GL271385   8.259   1.714   6.268  0.1080  0.1361  0.1837
    1OPC    C1B71386   8.614   1.618   6.035  0.1040  0.0822  0.2719
    1OPC    D2B71387   8.733   1.240   5.832 -0.0850 -0.2921  0.0739
    1OPC    C3B71388   8.757   0.912   5.531  0.0762  0.1780  0.0255
    1OPC    C4B71389   8.933   0.637   5.229  0.0900  0.0695 -0.0553
    1OPC    NC371390  12.729  14.185   6.967 -0.0355 -0.1833 -0.0782
    1OPC    PO471391  12.695  14.321   6.581 -0.1764 -0.0340  0.0639
    1OPC    GL171392  13.019  14.394   6.252  0.1826 -0.0839 -0.0109
    1OPC    GL271393  13.247  14.402   6.022  0.1623  0.0404  0.1429
    1OPC    C1B71394  13.310  14.289   5.709  0.0108  0.1571  0.0268
    1OPC    D2B71395  13.379  13.834   5.453 -0.1419 -0.2459  0.0962
    1OPC    C3B71396  13.250  13.660   5.108  0.0972  0.2723 -0.0606
    1OPC    C4B71397  13.221  13.705   4.655 -0.1663  0.0948 -0.1273
    1OPC    NC371398  14.386   3.733   8.553  0.2404 -0.2829 -0.0581
    1OPC    PO471399  14.650   3.442   8.184  0.2003 -0.1975  0.2386
    1OPC    GL171400  14.703   3.526   7.738  0.1177  0.0099  0.0767
    1OPC    GL271401  14.512   3.549   7.548 -0.0290  0.1542  0.1340
    1OPC    C1B71402  14.430   3.767   7.163 -0.2558  0.1674 -0.0491
    1OPC    D2B71403  14.357   3.557   6.790 -0.1405 -0.0951  0.0029
    1OPC    C3B71404  14.477   3.178   6.810 -0.2210 -0.1751 -0.3726
    1OPC    C4B71405  14.411   2.700   6.872 -0.1776  0.0134 -0.1421
    1OPC    NC371406   6.692  19.976   6.492 -0.0390  0.1451  0.1444
    1OPC    PO471407   6.722  19.981   6.053  0.1916 -0.0096  0.4274
    1OPC    GL171408   6.565  20.192   5.747 -0.0869  0.2483  0.2819
    1OPC    GL271409   6.714  20.346   5.511  0.0600 -0.2635  0.0625
    1OPC    C1B71410   6.823  20.314   5.090  0.1453 -0.2219  0.1316
    1OPC    D2B71411   6.821  20.383   4.674 -0.1491 -0.1344  0.1715
    1OPC    C3B71412   6.637  20.217   4.177 -0.0758 -0.0725  0.1115
    1OPC    C4B71413   6.699  20.218   3.753  0.2109 -0.2069 -0.1340
    1OPC    NC371414  24.402  12.293   7.924  0.0801 -0.0993 -0.2124
    1OPC    PO471415  24.497  11.948   7.500 -0.0953  0.0938 -0.1187
    1OPC    GL171416  24.526  11.686   7.240  0.1487  0.1586  0.2974
    1OPC    GL271417  24.685  11.721   6.953  0.0986  0.2291 -0.2385
    1OPC    C1B71418  24.804  11.468   6.590 -0.1965 -0.0229  0.0426
    1OPC    D2B71419  24.778  11.310   6.235 -0.2012 -0.2444 -0.0350
    1OPC    C3B71420  24.848  11.319   5.689  0.2098  0.0578 -0.1087
    1OPC    C4B71421  24.894  11.517   5.237  0.0466 -0.1543 -0.0369
    1OPC    NC371422  17.222  25.995   1.233 -0.0263 -0.0423 -0.1029
    1OPC    PO471423  17.286  25.906   1.725  0.0435 -0.2230 -0.2949
    1OPC    GL171424  17.114  25.623   2.051 -0.1093 -0.2198  0.2569
    1OPC    GL271425  17.073  25.642   2.395  0.5099 -0.0893 -0.0613
    1OPC    C1B71426  16.985  25.319   2.770 -0.2351  0.0773  0.1880
    1OPC    D2B71427  17.008  24.805   3.024  0.3691  0.0527  0.1635
    1OPC    C3B71428  17.321  24.590   3.203  0.0959 -0.1207  0.0089
    1OPC    C4B71429  17.331  24.177   3.435  0.2328  0.0021  0.0034
    1OPC    NC371430   0.207  16.058   2.551 -0.1038  0.2544 -0.1991
    1OPC    PO471431   0.409  16.380   2.675  0.0176 -0.2235 -0.2512
    1OPC    GL171432   0.680  16.618   2.817  0.2210  0.1457  0.1440
    1OPC    GL271433   0.819  16.710   3.079  0.1417 -0.4234  0.2005
    1OPC    C1B71434   0.794  16.968   3.431 -0.2378  0.1279 -0.2460
    1OPC    D2B71435   1.090  17.027   3.807  0.0072  0.3155  0.0996
    1OPC    C3B71436   1.000  16.835   4.221 -0.0023  0.0220 -0.0380
    1OPC    C4B71437   0.895  16.426   4.300  0.0620 -0.1068  0.0644
    1OPC    NC371438  27.159   6.842   2.437  0.0034 -0.2000 -0.1724
    1OPC    PO471439  27.043   7.213   2.661 -0.0976  0.2570  0.1603
    1OPC    GL171440  27.261   7.271   3.022 -0.1005  0.0314  0.0749
    1OPC    GL271441  27.241   7.171   3.308  0.0176  0.1660 -0.3092
    1OPC    C1B71442  27.095   7.222   3.754  0.0544  0.3381  0.0382
    1OPC    D2B71443  26.921   7.320   4.207 -0.1589  0.0588 -0.1017
    1OPC    C3B71444  26.569   7.340   4.482 -0.0967 -0.0860 -0.0636
    1OPC    C4B71445  26.107   7.483   4.446 -0.0127  0.0722 -0.2987
    1OPC    NC371446  18.752   4.635   3.225 -0.0353  0.2128 -0.0121
    1OPC    PO471447  18.476   5.020   3.319 -0.0118  0.0297  0.0744
    1OPC    GL171448  18.493   5.066   3.765 -0.0356 -0.0056 -0.1866
    1OPC    GL271449  18.389   5.229   4.097  0.0226 -0.0367  0.2682
    1OPC    C1B71450  18.150   5.459   4.438 -0.1070 -0.1605 -0.1382
    1OPC    D2B71451  18.309   5.676   4.760  0.2877  0.0666  0.1518
    1OPC    C3B71452  18.124   6.003   5.060  0.2845  0.4610 -0.0064
    1OPC    C4B71453  17.828   6.140   5.289 -0.1474 -0.0757 -0.0445
    1OPC    NC371454  29.033  15.508   2.292  0.0688 -0.3577  0.1891
    1OPC    PO471455  28.949  15.585   2.688  0.1004  0.1915 -0.0664
    1OPC    GL171456  28.894  15.710   3.094 -0.1457  0.0082 -0.2098
    1OPC    GL271457  28.729  15.806   3.381 -0.1303 -0.1021 -0.0699
    1OPC    C1B71458  28.840  15.699   3.883  0.2633  0.0257 -0.0268
    1OPC    D2B71459  28.772  15.517   4.302 -0.1981  0.1906  0.1332
    1OPC    C3B71460  28.387  15.446   4.468 -0.0530  0.1075 -0.3885
    1OPC    C4B71461  28.025  15.199   4.550 -0.2744 -0.2072  0.0962
    1OPC    NC371462  27.729  12.028   2.450  0.3114 -0.0720 -0.0420
    1OPC    PO471463  27.909  12.353   2.662  0.1137  0.2921  0.3554
    1OPC    GL171464  27.746  12.020   2.931 -0.0179 -0.3397 -0.2451
    1OPC    GL271465  27.500  11.862   3.201 -0.1703 -0.0948 -0.0073
    1OPC    C1B71466  27.263  11.778   3.554 -0.1881  0.0405  0.3280
    1OPC    D2B71467  27.247  11.653   3.849  0.0267 -0.2079  0.1000
    1OPC    C3B71468  26.988  11.543   4.106  0.1711 -0.0168 -0.1575
    1OPC    C4B71469  26.712  11.602   4.457  0.1113  0.1251  0.1941
    1OPC    NC371470  14.051  11.041   1.903 -0.3082  0.1577 -0.1924
    1OPC    PO471471  13.592  10.963   2.115 -0.0662 -0.1031  0.0669
    1OPC    GL171472  13.630  11.271   2.479 -0.1573 -0.3714 -0.0213
    1OPC    GL271473  13.761  11.469   2.671  0.1530  0.2842  0.0966
    1OPC    C1B71474  13.785  11.526   3.125 -0.1798 -0.0376  0.1145
    1OPC    D2B71475  13.734  11.675   3.609  0.0316 -0.1118  0.3235
    1OPC    C3B71476  13.737  11.902   4.007 -0.2345 -0.2273 -0.2130
    1OPC    C4B71477  13.937  12.353   4.102  0.0910  0.1966  0.0784
    1OPC    NC371478  27.660  16.425   2.848  0.0095  0.0780 -0.2367
    1OPC    PO471479  27.745  16.017   2.692 -0.1508 -0.1675  0.2665
    1OPC    GL171480  27.615  16.027   3.137  0.1736  0.2190  0.1834
    1OPC    GL271481  27.533  15.772   3.421  0.0510 -0.2516  0.1639
    1OPC    C1B71482  27.346  15.557   3.783  0.0143 -0.1439 -0.2426
    1OPC    D2B71483  27.360  15.372   4.192  0.1638 -0.2678 -0.0535
    1OPC    C3B71484  27.498  15.593   4.555 -0.2582  0.1748 -0.3375
    1OPC    C4B71485  27.911  15.883   4.751 -0.0098 -0.0763  0.2777
    1OPC    NC371486  24.079  12.507   1.826  0.0039  0.3324 -0.0827
    1OPC    PO471487  24.471  12.460   2.195  0.2749  0.0320  0.4535
    1OPC    GL171488  24.274  12.515   2.652  0.2480  0.0538  0.0576
    1OPC    GL271489  24.082  12.342   2.976 -0.1548 -0.0278 -0.0578
    1OPC    C1B71490  24.083  12.401   3.468  0.0998 -0.1053 -0.5020
    1OPC    D2B71491  24.119  12.324   3.917  0.0544 -0.0207 -0.1548
    1OPC    C3B71492  24.025  12.083   4.339 -0.0028 -0.0263  0.0799
    1OPC    C4B71493  23.954  11.664   4.605 -0.3658  0.0670 -0.1646
    1OPC    NC371494  29.542  26.563   1.533 -0.1642 -0.0530  0.0633
    1OPC    PO471495  29.763  26.708   1.894 -0.1439  0.3996  0.2319
    1OPC    GL171496   0.415  26.629   2.021  0.1692  0.0265  0.3208
    1OPC    GL271497   0.515  26.444   2.266  0.1691  0.0353  0.1013
    1OPC    C1B71498   0.678  26.584   2.714  0.0239  0.1975 -0.0835
    1OPC    D2B71499   0.621  26.766   3.109  0.1052 -0.0145  0.1478
    1OPC    C3B71500   0.855  27.005   3.221  0.0252 -0.2984  0.1475
    1OPC    C4B71501   0.880  27.198   3.599 -0.0453 -0.1319  0.2413
    1OPC    NC371502  28.582  13.338   2.719  0.2361  0.1664 -0.1263
    1OPC    PO471503  28.359  13.394   3.016  0.4376  0.2903  0.0478
    1OPC    GL171504  28.091  13.096   3.279  0.4583 -0.0798  0.1015
    1OPC    GL271505  28.147  12.846   3.413  0.1248  0.1201  0.0144
    1OPC    C1B71506  28.243  12.498   3.704 -0.4636  0.0901 -0.2958
    1OPC    D2B71507  28.247  12.416   4.141 -0.2571 -0.1537  0.1072
    1OPC    C3B71508  28.007  12.181   4.368 -0.1439  0.0665 -0.1788
    1OPC    C4B71509  28.003  12.276   4.795 -0.0362 -0.0359  0.0203
    1OPC    NC371510   1.948  11.868   1.839 -0.0447  0.2111 -0.2257
    1OPC    PO471511   1.881  11.563   2.228 -0.1800 -0.1297  0.1824
    1OPC    GL171512   1.655  11.539   2.641  0.3042  0.1346  0.0992
    1OPC    GL271513   1.437  11.510   2.941 -0.1492  0.0465  0.2460
    1OPC    C1B71514   1.422  11.293   3.341  0.0175  0.0983  0.1498
    1OPC    D2B71515   1.332  10.940   3.594 -0.1251  0.0941  0.0544
    1OPC    C3B71516   1.438  10.931   4.067 -0.1077 -0.2405 -0.3819
    1OPC    C4B71517   1.402  10.593   4.448  0.0886 -0.0977  0.0073
    1OPC    NC371518  12.847  26.157   1.989  0.0901 -0.1597  0.0472
    1OPC    PO471519  13.316  26.395   2.292  0.0534  0.0630 -0.1548
    1OPC    GL171520  13.208  26.251   2.558  0.0340  0.2844 -0.0952
    1OPC    GL271521  13.156  26.326   2.848 -0.1125 -0.0911  0.1544
    1OPC    C1B71522  12.875  26.287   3.176  0.0923 -0.3851  0.3146
    1OPC    D2B71523  12.463  26.072   3.396 -0.0400 -0.1705 -0.3143
    1OPC    C3B71524  11.990  26.141   3.576 -0.0651  0.1274  0.0710
    1OPC    C4B71525  11.916  26.329   3.937 -0.2876  0.4069 -0.0359
    1OPC    NC371526  22.583  13.899   2.341  0.1440 -0.0774  0.2984
    1OPC    PO471527  22.848  14.302   2.311  0.0931  0.1164 -0.1005
    1OPC    GL171528  22.732  14.319   2.711 -0.2547 -0.4293 -0.2250
    1OPC    GL271529  22.845  14.394   3.076 -0.0472  0.1806  0.2221
    1OPC    C1B71530  22.721  14.380   3.531  0.1417 -0.3093  0.1290
    1OPC    D2B71531  22.572  14.316   3.914 -0.1882  0.3265 -0.0872
    1OPC    C3B71532  22.614  14.293   4.363 -0.1117  0.3293 -0.2632
    1OPC    C4B71533  22.986  14.290   4.635  0.0257  0.1384 -0.0829
    1OPC    NC371534  17.883  20.697   1.034  0.3311 -0.0655  0.0276
    1OPC    PO471535  17.618  20.640   1.322 -0.1255  0.1169  0.1326
    1OPC    GL171536  17.781  20.714   1.767 -0.2359 -0.2282  0.2048
    1OPC    GL271537  17.762  20.883   2.011  0.1181  0.2341  0.1472
    1OPC    C1B71538  17.802  20.974   2.415 -0.3216 -0.1521 -0.2982
    1OPC    D2B71539  17.944  21.034   2.825 -0.3168  0.4875 -0.1813
    1OPC    C3B71540  18.166  20.867   3.220  0.1264 -0.0882 -0.0080
    1OPC    C4B71541  18.353  20.604   3.562 -0.3740  0.1700 -0.0796
    1OPC    NC371542  26.917   9.763   2.777 -0.2623 -0.0521 -0.1125
    1OPC    PO471543  27.138  10.111   2.595  0.1693 -0.0013 -0.0139
    1OPC    GL171544  26.829  10.268   2.814 -0.1235 -0.1379 -0.1425
    1OPC    GL271545  26.708  10.182   3.070 -0.0938 -0.0863 -0.0427
    1OPC    C1B71546  26.293  10.291   3.318 -0.2487  0.0397 -0.1585
    1OPC    D2B71547  26.218  10.588   3.536  0.0668 -0.1470  0.4486
    1OPC    C3B71548  26.360  10.438   3.962  0.0299 -0.1359 -0.2213
    1OPC    C4B71549  26.404  10.350   4.426  0.0878  0.2310 -0.1007
    1OPC    NC371550   0.989  21.892   2.607 -0.2006 -0.0224  0.1087
    1OPC    PO471551   0.927  22.324   2.366 -0.4161 -0.2933 -0.1162
    1OPC    GL171552   0.684  22.498   2.691  0.0945  0.1611  0.0533
    1OPC    GL271553   0.506  22.263   2.990 -0.2593  0.0226 -0.1112
    1OPC    C1B71554   0.460  22.172   3.400  0.2766  0.0135  0.2039
    1OPC    D2B71555   0.778  21.966   3.700 -0.2311 -0.1060 -0.1912
    1OPC    C3B71556   1.190  22.116   3.647 -0.0519 -0.0250  0.2197
    1OPC    C4B71557   1.561  22.177   3.811 -0.2072  0.0758 -0.0801
    1OPC    NC371558   5.283   8.850   2.375  0.1068 -0.1705 -0.3637
    1OPC    PO471559   5.508   9.194   2.404  0.1090 -0.0030  0.1064
    1OPC    GL171560   5.596   9.142   2.828  0.0214  0.2286  0.0094
    1OPC    GL271561   5.682   9.014   3.173  0.0077  0.1171 -0.3223
    1OPC    C1B71562   5.648   9.051   3.647 -0.1864 -0.0478  0.0316
    1OPC    D2B71563   5.493   9.099   4.183 -0.0862  0.0019 -0.0692
    1OPC    C3B71564   5.089   9.279   4.298  0.0459 -0.0603  0.2161
    1OPC    C4B71565   4.881   9.666   4.336  0.0964 -0.2236  0.3818
    1OPC    NC371566  21.524  11.533   2.161 -0.0230 -0.1825  0.1548
    1OPC    PO471567  21.488  11.179   2.491 -0.2608  0.0923 -0.2546
    1OPC    GL171568  21.478  11.124   2.913  0.0036  0.0826  0.1164
    1OPC    GL271569  21.681  11.090   3.146  0.3489  0.0640 -0.2814
    1OPC    C1B71570  21.836  11.270   3.425  0.0306  0.0953  0.3694
    1OPC    D2B71571  21.820  11.361   3.853  0.1950  0.1054 -0.0615
    1OPC    C3B71572  21.944  11.297   4.257  0.0165 -0.1749  0.0821
    1OPC    C4B71573  22.077  11.196   4.682  0.1952  0.2228 -0.0772
    1OPC    NC371574  22.356   5.950   3.491 -0.0603 -0.1550 -0.2145
    1OPC    PO471575  22.890   5.849   3.591 -0.1120 -0.0298 -0.1716
    1OPC    GL171576  22.604   5.980   3.879 -0.0993 -0.0314  0.0229
    1OPC    GL271577  22.701   6.173   4.219  0.0850 -0.1610 -0.2970
    1OPC    C1B71578  22.794   5.907   4.597  0.0709 -0.0046  0.2398
    1OPC    D2B71579  23.063   5.627   4.978 -0.0651  0.0656 -0.1929
    1OPC    C3B71580  23.405   5.787   5.041  0.0324  0.2449 -0.0869
    1OPC    C4B71581  23.612   6.056   5.202 -0.0187  0.0930  0.0052
    1OPC    NC371582   7.704  27.470   2.450 -0.3445 -0.1645 -0.0395
    1OPC    PO471583   7.453  27.125   2.316  0.2014 -0.0907 -0.0101
    1OPC    GL171584   7.284  27.256   2.710 -0.1690  0.0397 -0.0548
    1OPC    GL271585   6.959  27.043   2.969 -0.3809  0.1284  0.0449
    1OPC    C1B71586   6.583  27.122   3.254  0.0548  0.2776 -0.0647
    1OPC    D2B71587   6.157  26.932   3.438 -0.1421 -0.0058 -0.3297
    1OPC    C3B71588   5.738  27.050   3.634  0.0950 -0.1584 -0.2669
    1OPC    C4B71589   5.314  26.995   3.607 -0.0241  0.1426 -0.0530
    1OPC    NC371590   9.610   6.585   2.908 -0.1726 -0.2604  0.2383
    1OPC    PO471591   9.548   6.988   3.045  0.1594  0.2694 -0.2364
    1OPC    GL171592   9.505   7.338   3.352 -0.3484  0.2851 -0.0848
    1OPC    GL271593   9.360   7.475   3.634  0.3316  0.3040  0.1265
    1OPC    C1B71594   9.461   7.784   3.998  0.4032 -0.2714  0.2564
    1OPC    D2B71595   9.304   8.075   4.320 -0.4332  0.0552 -0.0815
    1OPC    C3B71596   9.235   8.017   4.824 -0.1367  0.1626 -0.1120
    1OPC    C4B71597   8.903   7.958   5.168 -0.4171 -0.2472  0.1902
    1OPC    NC371598  17.190  29.501   2.813 -0.1941 -0.1219  0.1712
    1OPC    PO471599  17.093  29.143   2.945 -0.2062 -0.0172  0.1926
    1OPC    GL171600  16.745  28.933   3.264  0.0535  0.1329 -0.3185
    1OPC    GL271601  16.709  28.689   3.578 -0.4472 -0.3266 -0.1138
    1OPC    C1B71602  16.504  28.581   4.062  0.1071 -0.1951  0.0726
    1OPC    D2B71603  16.570  28.449   4.434 -0.1081  0.1550 -0.0928
    1OPC    C3B71604  16.578  27.895   4.483 -0.1116 -0.1993  0.0540
    1OPC    C4B71605  16.723  27.593   4.828  0.2138 -0.0181 -0.0656
    1OPC    NC371606  15.809   9.324   2.948 -0.0300 -0.0150  0.1724
    1OPC    PO471607  15.424   9.360   3.071  0.0651 -0.0426 -0.0339
    1OPC    GL171608  15.466   9.682   3.330  0.1110 -0.0025 -0.0524
    1OPC    GL271609  15.377   9.810   3.597 -0.1877 -0.3852  0.1008
    1OPC    C1B71610  15.077   9.992   3.823  0.2338  0.0391 -0.3829
    1OPC    D2B71611  14.741   9.814   3.991 -0.1704 -0.0109  0.0352
    1OPC    C3B71612  14.551   9.977   4.315 -0.2174  0.0488 -0.1893
    1OPC    C4B71613  14.146  10.052   4.383 -0.1569 -0.2239  0.1973
    1OPC    NC371614   5.357  28.342   1.684 -0.3471  0.0178 -0.1472
    1OPC    PO471615   5.722  28.453   1.853 -0.1693 -0.2086 -0.2314
    1OPC    GL171616   5.896  28.285   2.252  0.1331 -0.1659 -0.0580
    1OPC    GL271617   6.175  28.285   2.409  0.0082 -0.0528  0.2507
    1OPC    C1B71618   6.181  28.469   2.744 -0.1338 -0.2186  0.1062
    1OPC    D2B71619   6.169  28.552   3.160 -0.0750  0.0829 -0.3815
    1OPC    C3B71620   6.106  28.931   3.282 -0.1664 -0.2755  0.1287
    1OPC    C4B71621   5.994  29.227   3.660  0.0434 -0.3588 -0.2597
    1OPC    NC371622   7.724  28.871   2.349  0.1156 -0.0318 -0.0795
    1OPC    PO471623   8.025  28.564   2.629  0.0090 -0.4607  0.0910
    1OPC    GL171624   7.753  28.487   2.875  0.1396 -0.1575  0.2168
    1OPC    GL271625   7.836  28.260   3.127  0.0614  0.3667 -0.2925
    1OPC    C1B71626   7.714  28.066   3.616 -0.1671 -0.1252  0.3782
    1OPC    D2B71627   7.572  28.045   4.005 -0.3071 -0.0354  0.3622
    1OPC    C3B71628   7.172  27.948   4.064 -0.1862 -0.1714 -0.0268
    1OPC    C4B71629   6.696  28.068   4.027  0.0116 -0.1291 -0.0070
    1OPC    NC371630  11.171  26.909   2.312 -0.2698  0.3249 -0.0276
    1OPC    PO471631  11.551  26.978   2.523  0.0105  0.1723  0.2345
    1OPC    GL171632  11.707  27.094   2.895 -0.0733 -0.3351  0.0429
    1OPC    GL271633  11.677  26.971   3.184  0.0090 -0.3052  0.0489
    1OPC    C1B71634  11.707  27.044   3.620  0.1810 -0.0738 -0.1637
    1OPC    D2B71635  11.816  26.823   4.001  0.0844  0.2404 -0.1601
    1OPC    C3B71636  11.711  26.704   4.379 -0.0441 -0.2438 -0.0407
    1OPC    C4B71637  11.709  26.504   4.801  0.1193  0.2254 -0.1470
    1OPC    NC371638   2.255   9.431   2.157 -0.1131 -0.0619  0.4683
    1OPC    PO471639   2.579   9.298   2.195 -0.2818 -0.1186  0.3276
    1OPC    GL171640   2.415   9.249   2.631 -0.0481 -0.0646 -0.3227
    1OPC    GL271641   2.437   9.129   3.018 -0.0153 -0.2809  0.0341
    1OPC    C1B71642   2.180   9.038   3.429  0.0523  0.1373  0.0363
    1OPC    D2B71643   2.054   9.172   3.805 -0.0656  0.0277  0.0299
    1OPC    C3B71644   1.619   8.962   3.924 -0.0284  0.0962  0.0495
    1OPC    C4B71645   1.344   8.734   3.890  0.1656 -0.4571 -0.0716
    1OPC    NC371646  15.580   5.479   3.441  0.3546 -0.1137 -0.3172
    1OPC    PO471647  15.565   5.670   3.854 -0.2849  0.2382 -0.0449
    1OPC    GL171648  15.298   5.769   4.253  0.0289 -0.2255  0.2887
    1OPC    GL271649  15.276   5.667   4.528  0.1743  0.0246 -0.1748
    1OPC    C1B71650  15.440   5.645   4.958 -0.1054  0.0716 -0.2654
    1OPC    D2B71651  15.482   5.447   5.422 -0.1826  0.3978  0.2530
    1OPC    C3B71652  15.144   5.409   5.737 -0.0519 -0.2422  0.0468
    1OPC    C4B71653  14.938   5.358   6.074  0.1168 -0.0295  0.2545
    1OPC    NC371654  10.528  27.559   2.847 -0.1012  0.3151  0.0441
    1OPC    PO471655  10.826  27.297   2.637 -0.3457 -0.0523  0.0710
    1OPC    GL171656  10.823  27.219   3.044 -0.1364  0.3646 -0.0175
    1OPC    GL271657  10.772  26.922   3.148 -0.1036  0.1532  0.2402
    1OPC    C1B71658  10.515  26.748   3.437  0.1124  0.2601  0.0832
    1OPC    D2B71659  10.142  26.570   3.626 -0.2558  0.2088  0.0507
    1OPC    C3B71660  10.164  26.544   4.094 -0.0928  0.1473 -0.1368
    1OPC    C4B71661  10.138  26.897   4.346  0.2746 -0.1781  0.0924
    1OPC    NC371662  21.160  28.437   2.425  0.3011 -0.2563 -0.0519
    1OPC    PO471663  20.841  28.280   2.743  0.1474  0.0798 -0.0153
    1OPC    GL171664  20.937  28.016   3.024 -0.4035  0.1019  0.0688
    1OPC    GL271665  20.775  27.745   3.087  0.0766 -0.3666 -0.2069
    1OPC    C1B71666  20.449  27.571   3.548  0.2597 -0.0473  0.0034
    1OPC    D2B71667  20.198  27.656   3.912  0.2471  0.0173 -0.1103
    1OPC    C3B71668  20.274  27.474   4.225  0.0327  0.0803 -0.1711
    1OPC    C4B71669  20.574  27.394   4.535  0.0298  0.1436 -0.1455
    1OPC    NC371670  22.170   7.929   2.489  0.2350 -0.1841 -0.0628
    1OPC    PO471671  22.377   8.155   2.915  0.1027 -0.0145 -0.2213
    1OPC    GL171672  22.090   8.181   3.277  0.0489  0.0148 -0.0903
    1OPC    GL271673  21.988   8.142   3.525 -0.0769 -0.0265  0.1524
    1OPC    C1B71674  21.755   8.324   3.898 -0.0370  0.2253  0.1435
    1OPC    D2B71675  21.666   8.396   4.305  0.0087 -0.2095 -0.0711
    1OPC    C3B71676  21.576   8.731   4.559 -0.0750 -0.3405  0.2959
    1OPC    C4B71677  21.622   8.800   4.973 -0.0031  0.3426  0.1607
    1OPC    NC371678   0.912  26.511   0.815  0.0216 -0.3278  0.2269
    1OPC    PO471679   0.730  26.613   1.189  0.0717 -0.1459 -0.4446
    1OPC    GL171680   0.758  26.367   1.539 -0.1374 -0.1922 -0.1299
    1OPC    GL271681   0.824  26.401   1.853  0.0883  0.0015 -0.0889
    1OPC    C1B71682   0.975  26.634   2.276  0.0278 -0.0823  0.0539
    1OPC    D2B71683   1.204  26.848   2.479 -0.1847 -0.0947 -0.0301
    1OPC    C3B71684   1.215  26.836   2.933 -0.3587  0.0559  0.1721
    1OPC    C4B71685   1.103  26.602   3.273 -0.0746  0.1341 -0.0109
    1OPC    NC371686   3.685   8.339   2.837  0.0988 -0.1155 -0.1565
    1OPC    PO471687   3.318   8.066   2.912  0.0729  0.4670  0.1052
    1OPC    GL171688   2.987   8.113   3.200 -0.0968  0.1327  0.0170
    1OPC    GL271689   2.772   8.261   3.454  0.3742  0.0792  0.1187
    1OPC    C1B71690   2.433   8.265   3.729 -0.1244  0.1424  0.0880
    1OPC    D2B71691   2.265   8.064   4.050 -0.0222  0.1548 -0.3316
    1OPC    C3B71692   2.120   8.164   4.453 -0.1751 -0.1026  0.0725
    1OPC    C4B71693   1.998   8.015   4.827  0.1374 -0.3910 -0.2402
    1OPC    NC371694  25.723   6.211   3.117  0.1769 -0.1051  0.2529
    1OPC    PO471695  25.840   5.797   2.918 -0.2792  0.2764 -0.0609
    1OPC    GL171696  26.218   6.119   3.102 -0.1480  0.1428  0.0931
    1OPC    GL271697  26.330   6.158   3.325  0.1329 -0.1380 -0.3303
    1OPC    C1B71698  26.281   6.045   3.693  0.0427  0.1447 -0.3058
    1OPC    D2B71699  26.073   5.900   4.063  0.1208 -0.2406  0.1878
    1OPC    C3B71700  26.287   6.058   4.393 -0.0524  0.1659  0.2312
    1OPC    C4B71701  26.533   5.872   4.675 -0.1473 -0.0310  0.1549
    1OPC    NC371702  22.909  17.979   1.991 -0.0947  0.0840  0.0351
    1OPC    PO471703  23.381  18.302   1.979 -0.0757 -0.1902  0.1834
    1OPC    GL171704  23.063  18.455   2.298  0.0910  0.1640  0.0335
    1OPC    GL271705  22.764  18.560   2.582  0.1368  0.2073  0.0000
    1OPC    C1B71706  22.657  18.257   2.828  0.1814  0.0483 -0.1731
    1OPC    D2B71707  22.417  18.118   3.196 -0.0813  0.1723 -0.2099
    1OPC    C3B71708  22.650  18.090   3.518  0.2398  0.1664  0.2791
    1OPC    C4B71709  23.053  17.900   3.582 -0.0149  0.0222 -0.0386
    1OPC    NC371710  24.539  10.473   2.423 -0.2468 -0.0832 -0.0933
    1OPC    PO471711  24.451  10.825   2.618 -0.2678  0.0361 -0.2691
    1OPC    GL171712  24.779  10.764   2.957 -0.4659 -0.0140  0.1077
    1OPC    GL271713  24.787  10.882   3.201 -0.0050  0.1349  0.0292
    1OPC    C1B71714  24.892  10.896   3.591 -0.3032 -0.1268 -0.3035
    1OPC    D2B71715  24.958  10.800   4.093 -0.1762 -0.1245 -0.0907
    1OPC    C3B71716  25.006  10.931   4.506 -0.1174 -0.1777  0.0320
    1OPC    C4B71717  25.245  11.120   4.871  0.1122  0.1607  0.1838
    1OPC    NC371718  22.190   4.508   3.746  0.2663  0.0848 -0.1089
    1OPC    PO471719  21.749   4.466   3.802  0.0525  0.0900 -0.0923
    1OPC    GL171720  21.940   4.575   4.161 -0.1084  0.1265 -0.0943
    1OPC    GL271721  22.102   4.434   4.407  0.3599  0.1003  0.0317
    1OPC    C1B71722  22.357   4.501   4.740 -0.0754  0.5067  0.0101
    1OPC    D2B71723  22.265   4.612   5.165  0.0416 -0.1445  0.1787
    1OPC    C3B71724  22.629   4.472   5.413 -0.1614 -0.0764 -0.1701
    1OPC    C4B71725  22.936   4.138   5.493  0.1582 -0.0398 -0.0472
    1OPC    NC371726  20.164  21.062   1.840 -0.0797 -0.0595  0.0343
    1OPC    PO471727  20.512  21.060   1.720  0.1311  0.1072 -0.0698
    1OPC    GL171728  20.512  20.784   2.084 -0.1511 -0.0619 -0.2324
    1OPC    GL271729  20.557  20.452   2.315 -0.2082 -0.2960 -0.0981
    1OPC    C1B71730  20.468  20.129   2.666  0.1540  0.0443 -0.0554
    1OPC    D2B71731  20.392  20.221   3.007 -0.2288  0.1678  0.1943
    1OPC    C3B71732  19.970  20.267   3.259  0.0210  0.1552 -0.1827
    1OPC    C4B71733  19.521  20.224   3.180  0.2697 -0.0162  0.0491
    1OPC    NC371734  10.032  20.656   1.441 -0.3028  0.0085 -0.2743
    1OPC    PO471735   9.937  20.957   1.640 -0.0629 -0.2379  0.1272
    1OPC    GL171736   9.872  21.242   1.939  0.0221 -0.6058  0.0392
    1OPC    GL271737   9.893  21.161   2.176  0.1258 -0.3686  0.1237
    1OPC    C1B71738   9.976  21.145   2.596  0.1774  0.0656  0.0382
    1OPC    D2B71739   9.798  21.297   2.924 -0.1466  0.0323  0.1367
    1OPC    C3B71740   9.760  21.591   3.073 -0.2866  0.0739 -0.1479
    1OPC    C4B71741   9.672  21.716   3.401 -0.0143  0.0051 -0.1928
    1OPC    NC371742  22.581  23.130   1.858  0.2187 -0.1189  0.0905
    1OPC    PO471743  22.338  23.175   2.256 -0.0555  0.1563 -0.1312
    1OPC    GL171744  22.298  23.106   2.735  0.2015  0.2456 -0.1871
    1OPC    GL271745  22.198  23.129   3.133  0.2690  0.0073  0.1411
    1OPC    C1B71746  22.111  23.048   3.535 -0.2839 -0.3288 -0.4952
    1OPC    D2B71747  22.115  22.933   3.956  0.0253 -0.0506 -0.0838
    1OPC    C3B71748  22.547  22.640   3.993 -0.0805  0.0468 -0.1570
    1OPC    C4B71749  22.724  22.316   4.193  0.2010 -0.0212 -0.2270
    1OPC    NC371750  13.305  24.917   2.044  0.0328 -0.0553  0.0795
    1OPC    PO471751  13.541  25.247   2.275  0.0136 -0.0446  0.0677
    1OPC    GL171752  13.645  25.208   2.624 -0.0171 -0.1575 -0.0268
    1OPC    GL271753  13.839  25.428   2.850  0.0005  0.4373  0.1285
    1OPC    C1B71754  14.001  25.821   2.894 -0.0920 -0.1229 -0.2526
    1OPC    D2B71755  14.208  26.086   3.190  0.1200  0.1621  0.0281
    1OPC    C3B71756  14.505  26.161   3.512 -0.1990 -0.3328  0.2210
    1OPC    C4B71757  14.636  26.130   3.918 -0.1602 -0.0103 -0.0717
    1OPC    NC371758  16.478  14.929   2.455 -0.0221  0.0071 -0.0671
    1OPC    PO471759  16.099  14.972   2.296  0.2004 -0.3921 -0.1868
    1OPC    GL171760  16.076  14.611   2.542  0.0857 -0.1622  0.2220
    1OPC    GL271761  16.134  14.590   2.756  0.0208 -0.3190 -0.0931
    1OPC    C1B71762  16.452  14.505   3.131 -0.0855 -0.1877 -0.1490
    1OPC    D2B71763  16.678  14.589   3.472  0.1928 -0.1050 -0.0611
    1OPC    C3B71764  16.603  14.432   3.864  0.1451 -0.2314  0.0060
    1OPC    C4B71765  16.822  14.239   4.115 -0.0419  0.1971  0.1175
    1OPC    NC371766  20.681  27.203   1.877  0.1731 -0.0645  0.0165
    1OPC    PO471767  21.099  27.270   2.180 -0.0454  0.0715  0.0121
    1OPC    GL171768  20.839  27.097   2.534 -0.0201  0.1496  0.1385
    1OPC    GL271769  20.829  27.126   2.853  0.1984  0.0382 -0.1956
    1OPC    C1B71770  20.710  27.282   3.164 -0.0045  0.1875 -0.0115
    1OPC    D2B71771  20.622  27.090   3.627 -0.0085 -0.3661 -0.2494
    1OPC    C3B71772  20.674  27.347   3.951 -0.2641 -0.0834  0.1309
    1OPC    C4B71773  20.726  27.748   4.012  0.1514 -0.0473 -0.1071
    1OPC    NC371774  22.487  27.437   2.536 -0.4676 -0.0005  0.1612
    1OPC    PO471775  22.279  27.790   2.695 -0.1026  0.0498  0.0876
    1OPC    GL171776  22.205  27.533   3.121  0.0309  0.0872  0.0457
    1OPC    GL271777  22.120  27.436   3.477 -0.1132  0.1347 -0.0522
    1OPC    C1B71778  22.046  27.207   3.793 -0.1182  0.1421  0.0756
    1OPC    D2B71779  22.183  26.782   4.117  0.1596 -0.1351  0.0171
    1OPC    C3B71780  22.008  26.377   4.090  0.2458  0.1214  0.0978
    1OPC    C4B71781  21.562  26.070   3.915  0.1175 -0.0126 -0.1158
    1OPC    NC371782  27.234  26.266   2.181 -0.1465  0.0430 -0.1022
    1OPC    PO471783  27.515  26.591   2.465 -0.1506 -0.0152 -0.0426
    1OPC    GL171784  27.929  26.839   2.594 -0.0114 -0.1135 -0.0485
    1OPC    GL271785  27.986  26.741   2.882  0.0564 -0.0536  0.2186
    1OPC    C1B71786  28.217  26.625   3.292  0.2039  0.3164  0.0420
    1OPC    D2B71787  28.491  26.203   3.374  0.3116  0.1830 -0.0583
    1OPC    C3B71788  28.432  25.963   3.778  0.2007  0.2623  0.0818
    1OPC    C4B71789  28.439  25.571   3.973  0.0779 -0.1792 -0.0881
    1OPC    NC371790  16.527  16.681   1.973 -0.0139  0.2027  0.1438
    1OPC    PO471791  16.674  16.503   2.364 -0.0082  0.0090 -0.0156
    1OPC    GL171792  16.277  16.438   2.593 -0.1232  0.0910 -0.1704
    1OPC    GL271793  16.255  16.407   2.870 -0.3753 -0.1193 -0.1403
    1OPC    C1B71794  16.369  16.380   3.340  0.0606  0.1645  0.1713
    1OPC    D2B71795  16.249  16.656   3.697  0.3959 -0.1149 -0.2330
    1OPC    C3B71796  16.086  16.583   4.096  0.2739  0.1310  0.1313
    1OPC    C4B71797  15.692  16.503   4.190 -0.1330  0.0043  0.1444
    1OPC    NC371798   4.353  22.446   2.422  0.0405  0.2171 -0.0321
    1OPC    PO471799   4.828  22.706   2.333 -0.1571  0.0682  0.3948
    1OPC    GL171800   4.616  22.830   2.677 -0.0060  0.1896 -0.0880
    1OPC    GL271801   4.786  22.907   2.943  0.0078  0.0340  0.0952
    1OPC    C1B71802   5.075  23.228   3.163  0.1879 -0.1623 -0.0083
    1OPC    D2B71803   5.173  23.516   3.465 -0.1651 -0.1286 -0.3528
    1OPC    C3B71804   5.074  23.885   3.781  0.4755 -0.1028  0.0135
    1OPC    C4B71805   4.688  24.156   3.748  0.1389 -0.6461 -0.2385
    1OPC    NC371806   8.197  28.222   2.238 -0.0447 -0.2018  0.3675
    1OPC    PO471807   8.506  27.992   2.466  0.0684  0.4213  0.2793
    1OPC    GL171808   8.470  28.329   2.712 -0.2998  0.0617 -0.0468
    1OPC    GL271809   8.331  28.349   3.034  0.3849  0.1588 -0.0160
    1OPC    C1B71810   8.599  28.284   3.460 -0.2497 -0.0992 -0.3358
    1OPC    D2B71811   8.541  28.409   3.926 -0.2368  0.1314  0.3065
    1OPC    C3B71812   8.820  28.400   4.186 -0.0278  0.1211 -0.0056
    1OPC    C4B71813   9.011  28.647   4.483  0.1846 -0.0244  0.0732
    1OPC    NC371814  17.338  21.633   1.120  0.0567  0.3383  0.1887
    1OPC    PO471815  17.331  22.106   1.286  0.0092  0.0375  0.0144
    1OPC    GL171816  17.047  22.288   1.656  0.1418 -0.1155 -0.0885
    1OPC    GL271817  16.899  22.520   1.947  0.2505  0.0259 -0.0229
    1OPC    C1B71818  16.688  22.839   2.316  0.0536  0.0296  0.0130
    1OPC    D2B71819  16.520  23.008   2.713 -0.0005  0.2335  0.0758
    1OPC    C3B71820  16.621  22.827   3.158  0.1972 -0.1998  0.0887
    1OPC    C4B71821  16.691  22.451   3.416  0.1327 -0.0196  0.0820
    1OPC    NC371822  14.479  19.032   1.617 -0.0924 -0.1816 -0.0022
    1OPC    PO471823  14.585  19.383   1.640 -0.2742 -0.0396 -0.2359
    1OPC    GL171824  14.863  19.533   2.000 -0.1659 -0.1924 -0.0479
    1OPC    GL271825  14.835  19.770   2.176 -0.0291 -0.0384 -0.0884
    1OPC    C1B71826  14.681  19.908   2.542 -0.2194 -0.1896  0.0841
    1OPC    D2B71827  14.723  19.940   2.988 -0.3949 -0.0199 -0.1276
    1OPC    C3B71828  15.081  19.998   3.270  0.2046  0.1344  0.1819
    1OPC    C4B71829  15.082  20.183   3.648  0.0924 -0.2156 -0.3295
    1OPC    NC371830  22.181   2.874   3.140  0.0519 -0.2219  0.2982
    1OPC    PO471831  22.445   2.813   3.556  0.1039  0.2701 -0.2031
    1OPC    GL171832  22.252   3.085   3.731 -0.1009 -0.1504  0.1075
    1OPC    GL271833  22.130   3.151   3.978 -0.0074 -0.0178  0.1166
    1OPC    C1B71834  22.297   3.088   4.419  0.0740  0.2740  0.1718
    1OPC    D2B71835  22.231   2.753   4.571  0.3123 -0.2143 -0.0776
    1OPC    C3B71836  22.504   2.673   4.860  0.0389 -0.2286  0.0782
    1OPC    C4B71837  22.936   2.761   4.926  0.1906  0.2138  0.3116
    1OPC    NC371838   3.526  21.439   1.891  0.1002  0.2304 -0.0640
    1OPC    PO471839   3.592  21.735   2.321 -0.0519 -0.1102  0.3793
    1OPC    GL171840   3.481  21.870   2.723 -0.4354 -0.1311  0.2023
    1OPC    GL271841   3.261  21.831   2.889  0.2676  0.2163 -0.1309
    1OPC    C1B71842   3.260  21.842   3.347 -0.0804 -0.1726 -0.1178
    1OPC    D2B71843   3.228  21.818   3.768 -0.1438 -0.3152  0.3210
    1OPC    C3B71844   2.877  21.707   3.975 -0.2638 -0.1067  0.1257
    1OPC    C4B71845   2.721  21.643   4.378  0.1743 -0.0195  0.1494
    1OPC    NC371846   2.125  24.820   1.572  0.1852 -0.4306  0.1673
    1OPC    PO471847   1.959  25.217   1.757 -0.3049 -0.0173 -0.0345
    1OPC    GL171848   2.049  25.383   2.151  0.1450 -0.2515  0.2200
    1OPC    GL271849   2.242  25.678   2.391  0.2540  0.1965 -0.2342
    1OPC    C1B71850   2.476  25.832   2.836  0.0342  0.1357 -0.1219
    1OPC    D2B71851   2.837  25.690   3.082  0.0049  0.1594  0.1122
    1OPC    C3B71852   2.870  25.837   3.536 -0.0208 -0.1262  0.2253
    1OPC    C4B71853   2.576  25.561   3.836 -0.1660 -0.0115 -0.0670
    1OPC    NC371854  18.054  26.465   1.698 -0.0839  0.0114  0.0149
    1OPC    PO471855  18.419  26.564   1.816 -0.0057 -0.1294  0.2465
    1OPC    GL171856  18.331  26.479   2.181  0.0962 -0.0384 -0.0562
    1OPC    GL271857  18.271  26.384   2.441  0.1835 -0.2873  0.1050
    1OPC    C1B71858  18.094  25.954   2.543  0.0788 -0.1672 -0.0122
    1OPC    D2B71859  17.977  25.548   2.594  0.1064 -0.2324 -0.1214
    1OPC    C3B71860  17.830  25.483   3.066  0.3875 -0.0398  0.0640
    1OPC    C4B71861  17.529  25.711   3.323 -0.4999 -0.1684 -0.0020
    1OPC    NC371862  15.573  28.169   2.456 -0.2073  0.3244 -0.0071
    1OPC    PO471863  15.187  28.483   2.450 -0.1541 -0.0865  0.1085
    1OPC    GL171864  15.113  28.361   2.798  0.3654 -0.2452  0.2343
    1OPC    GL271865  15.138  28.185   3.070  0.0942  0.1216  0.0355
    1OPC    C1B71866  15.163  27.814   3.354  0.4301  0.1967 -0.0005
    1OPC    D2B71867  15.087  27.592   3.770 -0.1443  0.1852 -0.0200
    1OPC    C3B71868  14.870  27.711   3.975  0.2002 -0.2863  0.1080
    1OPC    C4B71869  14.867  28.034   4.208 -0.4608  0.4150 -0.0227
    1OPC    NC371870   1.433  13.310   2.637  0.1039 -0.0179 -0.3856
    1OPC    PO471871   1.677  13.445   2.994  0.1324  0.1357  0.1908
    1OPC    GL171872   1.751  13.509   3.344  0.0946  0.0550  0.1349
    1OPC    GL271873   1.852  13.421   3.684 -0.3472  0.0655  0.4516
    1OPC    C1B71874   1.942  13.059   3.967  0.0660 -0.0128  0.0958
    1OPC    D2B71875   1.728  12.816   4.199  0.0161 -0.2778  0.2055
    1OPC    C3B71876   1.732  12.848   4.683 -0.4818  0.2441  0.1650
    1OPC    C4B71877   1.883  13.058   5.107 -0.0311 -0.2587  0.0367
    1OPC    NC371878  22.333   9.815   2.200  0.1099 -0.2081  0.2722
    1OPC    PO471879  22.707  10.089   2.473  0.1560 -0.0483 -0.1271
    1OPC    GL171880  22.677   9.967   2.932  0.0136  0.1106 -0.0303
    1OPC    GL271881  22.553   9.847   3.257  0.0764  0.2538 -0.0383
    1OPC    C1B71882  22.348   9.932   3.662 -0.1099 -0.1103  0.0239
    1OPC    D2B71883  22.302   9.970   4.050 -0.2545 -0.0995 -0.0522
    1OPC    C3B71884  22.158   9.664   4.143  0.0452 -0.3518  0.1138
    1OPC    C4B71885  22.227   9.246   4.331 -0.0046  0.0274 -0.0696
    1OPC    NC371886  28.475   8.204   2.660  0.2013 -0.0882 -0.1219
    1OPC    PO471887  28.303   7.808   2.818  0.0509 -0.3997 -0.1742
    1OPC    GL171888  28.229   8.126   3.179 -0.0026  0.2033 -0.1249
    1OPC    GL271889  28.292   8.443   3.419  0.0361  0.2533  0.2862
    1OPC    C1B71890  28.307   8.661   3.769 -0.1919 -0.0896 -0.0390
    1OPC    D2B71891  28.310   8.981   4.157 -0.2843 -0.1112 -0.0605
    1OPC    C3B71892  28.625   8.949   4.451 -0.2410  0.0156  0.0850
    1OPC    C4B71893  29.034   8.791   4.531  0.0106  0.1067 -0.0547
    1OPC    NC371894   4.167   3.214   2.750  0.1772  0.1074  0.1190
    1OPC    PO471895   4.573   3.188   2.520  0.1950  0.2173 -0.0635
    1OPC    GL171896   4.592   3.035   2.979 -0.0603 -0.0353 -0.4358
    1OPC    GL271897   4.774   2.845   3.200 -0.1343  0.3049 -0.4508
    1OPC    C1B71898   4.668   2.801   3.591 -0.0551  0.0183 -0.0724
    1OPC    D2B71899   4.486   2.924   3.959 -0.0420 -0.0807  0.1852
    1OPC    C3B71900   4.278   3.105   4.392  0.1355  0.0766  0.2368
    1OPC    C4B71901   4.160   3.202   4.860 -0.0563  0.1455  0.0270
    1OPC    NC371902   2.536  24.141   2.148 -0.2007  0.0527 -0.1070
    1OPC    PO471903   2.389  24.507   1.898 -0.0480 -0.4672 -0.1072
    1OPC    GL171904   2.346  24.607   2.319  0.2147  0.4034 -0.0228
    1OPC    GL271905   2.268  24.921   2.423  0.0426  0.2213  0.0206
    1OPC    C1B71906   2.349  25.290   2.669  0.3670  0.0990  0.1752
    1OPC    D2B71907   2.104  25.577   3.061 -0.2021 -0.3053 -0.1255
    1OPC    C3B71908   2.407  25.711   3.405  0.1624 -0.1408 -0.6265
    1OPC    C4B71909   2.487  26.053   3.701 -0.0880  0.1385  0.0177
    1OPC    NC371910   8.371   7.816   2.584 -0.0002 -0.0299  0.3687
    1OPC    PO471911   8.564   8.058   2.338  0.0648  0.1151 -0.0315
    1OPC    GL171912   8.751   8.174   2.726 -0.0380  0.0865 -0.2243
    1OPC    GL271913   8.899   8.392   2.955 -0.1116  0.1891 -0.1138
    1OPC    C1B71914   8.588   8.440   3.224 -0.2189 -0.0282  0.3462
    1OPC    D2B71915   8.377   8.636   3.688  0.1760 -0.2166 -0.0945
    1OPC    C3B71916   8.604   8.493   4.028  0.1890 -0.2046 -0.0565
    1OPC    C4B71917   8.625   8.619   4.418 -0.3170  0.0605 -0.1839
    1OPC    NC371918  13.228  14.243   1.779 -0.0083  0.3066 -0.0518
    1OPC    PO471919  13.268  14.322   2.158  0.2211 -0.0360 -0.0336
    1OPC    GL171920  13.425  14.206   2.538  0.1966  0.3357  0.1500
    1OPC    GL271921  13.655  14.355   2.692 -0.3331 -0.0962  0.0711
    1OPC    C1B71922  13.828  14.298   3.030 -0.1203 -0.2695  0.0394
    1OPC    D2B71923  14.006  14.709   3.279  0.1313 -0.3348  0.3580
    1OPC    C3B71924  13.994  14.879   3.681 -0.0834  0.2553 -0.2089
    1OPC    C4B71925  13.979  15.273   3.972  0.2527  0.1862  0.1354
    1OPC    NC371926  29.778  11.229   2.323  0.2039 -0.2814  0.1376
    1OPC    PO471927  29.608  10.812   2.489  0.0214  0.0562 -0.0082
    1OPC    GL171928  29.649  10.702   2.947 -0.1448 -0.2743 -0.1966
    1OPC    GL271929  29.825  10.853   3.167 -0.0511 -0.1876 -0.0821
    1OPC    C1B71930  29.757  11.059   3.546 -0.2827  0.0612  0.0897
    1OPC    D2B71931  29.604  10.762   3.919  0.1687 -0.2008  0.3621
    1OPC    C3B71932  29.182  10.839   4.167 -0.0181  0.4114 -0.0934
    1OPC    C4B71933  28.763  10.784   4.204  0.0071 -0.1573  0.1676
    1OPC    NC371934  16.777  22.092   1.182 -0.0625  0.2015  0.3940
    1OPC    PO471935  16.796  21.643   1.400  0.0116 -0.1359  0.0245
    1OPC    GL171936  17.070  21.722   1.530  0.1555 -0.0951 -0.0503
    1OPC    GL271937  17.294  21.856   1.766  0.1042 -0.1005 -0.0265
    1OPC    C1B71938  17.111  21.941   2.206  0.2152 -0.1839 -0.2252
    1OPC    D2B71939  17.184  21.862   2.638 -0.0033 -0.3067  0.0096
    1OPC    C3B71940  17.410  22.050   2.995 -0.1313  0.0356 -0.0966
    1OPC    C4B71941  17.649  22.374   3.203  0.1957 -0.0513 -0.1049
    1OPC    NC371942   7.980   8.701   2.866  0.3447 -0.0048  0.0620
    1OPC    PO471943   7.592   8.645   3.041  0.0037  0.0988 -0.0497
    1OPC    GL171944   7.927   8.389   3.243 -0.0557  0.0164  0.0888
    1OPC    GL271945   8.119   8.251   3.402 -0.3073  0.1737 -0.2676
    1OPC    C1B71946   8.295   8.123   3.811  0.0228 -0.0168  0.1689
    1OPC    D2B71947   8.257   8.256   4.278 -0.0058 -0.4805  0.1377
    1OPC    C3B71948   8.199   8.487   4.599 -0.2015  0.0239 -0.1023
    1OPC    C4B71949   8.363   8.954   4.695 -0.0004 -0.2995  0.0814
    1OPC    NC371950   6.234  20.166   2.250  0.0272  0.1688 -0.1366
    1OPC    PO471951   5.771  20.165   2.207 -0.0870  0.4066 -0.1300
    1OPC    GL171952   5.942  20.127   2.665 -0.3008 -0.1165 -0.0969
    1OPC    GL271953   6.246  20.172   2.739  0.3305  0.1608 -0.1262
    1OPC    C1B71954   6.587  19.928   2.939  0.0224 -0.2480 -0.0122
    1OPC    D2B71955   6.745  19.697   3.178  0.0145 -0.1279  0.0067
    1OPC    C3B71956   6.913  19.805   3.608 -0.3082  0.2550  0.0041
    1OPC    C4B71957   6.934  19.831   4.016 -0.0823 -0.3156 -0.1368
    1OPC    NC371958  22.071   0.721   3.104 -0.0378  0.2765  0.0472
    1OPC    PO471959  21.840   0.999   3.234 -0.1210  0.0524 -0.0239
    1OPC    GL171960  21.903   0.672   3.571 -0.0754 -0.0699 -0.1514
    1OPC    GL271961  21.748   0.625   3.967  0.3322  0.1048 -0.0752
    1OPC    C1B71962  21.604   0.489   4.344 -0.1938 -0.0667 -0.0057
    1OPC    D2B71963  21.378   0.246   4.656 -0.2000 -0.2009 -0.3680
    1OPC    C3B71964  21.506   0.475   5.048  0.2000 -0.1729 -0.0014
    1OPC    C4B71965  21.742   0.597   5.371 -0.1798 -0.0367  0.0747
    1OPC    NC371966  25.457   1.258   2.992 -0.1298  0.1410  0.0876
    1OPC    PO471967  25.421   0.921   3.292 -0.0717 -0.0272  0.1230
    1OPC    GL171968  25.494   1.197   3.735  0.0397  0.1594  0.0660
    1OPC    GL271969  25.742   1.306   3.996 -0.2614  0.0680  0.4776
    1OPC    C1B71970  25.902   1.564   4.358 -0.0298 -0.0755 -0.1533
    1OPC    D2B71971  26.203   1.449   4.648 -0.0429  0.2131 -0.0596
    1OPC    C3B71972  26.651   1.579   4.628 -0.1927  0.1670  0.4994
    1OPC    C4B71973  27.027   1.413   4.806 -0.1459 -0.0732  0.2391
    1OPC    NC371974  14.422  27.577   2.748 -0.0625  0.1381  0.0989
    1OPC    PO471975  14.855  27.520   2.520 -0.2300 -0.0852  0.1516
    1OPC    GL171976  14.885  27.460   2.950  0.0070  0.1283  0.0033
    1OPC    GL271977  14.896  27.340   3.286  0.2849  0.0151 -0.0845
    1OPC    C1B71978  14.707  27.246   3.642 -0.1868  0.1944  0.1776
    1OPC    D2B71979  14.511  27.357   4.067 -0.1812  0.0611  0.1707
    1OPC    C3B71980  14.631  27.528   4.409 -0.3704  0.0169 -0.1029
    1OPC    C4B71981  14.825  27.580   4.641 -0.0196 -0.2691  0.1740
    1OPC    NC371982  22.073  26.871   2.125 -0.0155  0.2328 -0.3732
    1OPC    PO471983  22.361  26.965   2.522 -0.4328 -0.1874  0.0610
    1OPC    GL171984  22.167  26.999   2.877 -0.2644 -0.2354 -0.0906
    1OPC    GL271985  22.138  27.069   3.189 -0.1645 -0.0520 -0.4917
    1OPC    C1B71986  22.262  26.808   3.617 -0.2135  0.1511  0.1569
    1OPC    D2B71987  22.510  26.560   3.885 -0.1523  0.0977  0.1284
    1OPC    C3B71988  22.753  26.076   3.830 -0.3406  0.2394 -0.0068
    1OPC    C4B71989  22.922  25.867   3.760 -0.1533  0.0819 -0.0575
    1OPC    NC371990  28.840  23.828   2.312  0.4050 -0.4716 -0.1094
    1OPC    PO471991  28.766  23.774   2.726 -0.3035  0.0662 -0.0058
    1OPC    GL171992  29.185  24.011   2.995 -0.2170 -0.4881 -0.0317
    1OPC    GL271993  29.048  24.249   3.348  0.0138  0.2673  0.0372
    1OPC    C1B71994  29.208  24.445   3.760  0.0402 -0.0039 -0.0972
    1OPC    D2B71995  29.146  24.698   4.123  0.0018 -0.0848 -0.1420
    1OPC    C3B71996  29.160  24.950   4.371  0.2513  0.0785  0.4555
    1OPC    C4B71997  28.966  25.384   4.499  0.0024  0.1434 -0.0727
    1OPC    NC371998   2.127  21.969   2.594  0.0235 -0.0203  0.3389
    1OPC    PO471999   1.694  21.946   2.267 -0.0736 -0.0335  0.1785
    1OPC    GL172000   1.619  22.078   2.710  0.0034  0.1123 -0.1565
    1OPC    GL272001   1.510  21.750   2.968 -0.0140  0.0120 -0.0966
    1OPC    C1B72002   1.579  21.792   3.431 -0.0608  0.1140 -0.1768
    1OPC    D2B72003   1.866  21.738   3.849 -0.0536 -0.0297 -0.1184
    1OPC    C3B72004   1.775  21.906   4.278  0.0791  0.1417  0.2962
    1OPC    C4B72005   1.420  22.010   4.520  0.2885  0.1655 -0.0847
    1OPC    NC372006  21.929  20.442   1.801  0.0792  0.1072  0.2417
    1OPC    PO472007  21.734  20.548   2.151  0.2130  0.1206  0.3758
    1OPC    GL172008  21.366  20.438   2.349 -0.0302  0.0758 -0.2073
    1OPC    GL272009  21.163  20.333   2.358  0.1634  0.3333 -0.4940
    1OPC    C1B72010  20.888  20.384   2.630 -0.1592  0.1027 -0.0765
    1OPC    D2B72011  20.822  20.425   3.066 -0.2065  0.1825  0.0259
    1OPC    C3B72012  21.185  20.434   3.394 -0.3885  0.1839 -0.2517
    1OPC    C4B72013  21.375  20.411   3.823  0.0419  0.1429  0.0428
    1OPC    NC372014  28.286   5.011   2.773  0.0223 -0.0652 -0.0013
    1OPC    PO472015  27.936   5.286   2.814  0.0622 -0.0632 -0.2394
    1OPC    GL172016  28.167   5.293   3.225 -0.1527  0.0878  0.3388
    1OPC    GL272017  28.301   5.406   3.566  0.3757  0.0539  0.0380
    1OPC    C1B72018  28.120   5.377   4.017 -0.1767 -0.0647  0.1483
    1OPC    D2B72019  27.936   5.563   4.309  0.1098 -0.2667 -0.0314
    1OPC    C3B72020  28.057   5.506   4.755  0.2112  0.3474 -0.0684
    1OPC    C4B72021  27.864   5.641   5.151  0.0194  0.0332 -0.2252
    1OPC    NC372022   1.733   6.070   3.094 -0.0898  0.0262  0.1430
    1OPC    PO472023   1.738   6.511   2.945  0.0011  0.3299 -0.2610
    1OPC    GL172024   1.843   6.680   3.302 -0.0827 -0.1150 -0.1049
    1OPC    GL272025   2.095   6.466   3.635 -0.1055  0.1138 -0.1914
    1OPC    C1B72026   2.345   5.976   3.748  0.1052  0.0180  0.0788
    1OPC    D2B72027   2.098   5.639   3.998  0.0914  0.0019  0.2116
    1OPC    C3B72028   2.131   5.639   4.435 -0.1388  0.2121  0.1278
    1OPC    C4B72029   2.278   5.676   4.762  0.2640 -0.2994 -0.2505
    1OPC    NC372030  25.260  21.506   2.926 -0.0442 -0.5063 -0.0621
    1OPC    PO472031  24.943  21.284   2.843  0.0768  0.2342  0.1624
    1OPC    GL172032  24.894  21.402   3.273 -0.1167  0.2922  0.0700
    1OPC    GL272033  24.936  21.087   3.475 -0.5736  0.1235  0.1403
    1OPC    C1B72034  25.142  20.659   3.853  0.0539 -0.0624 -0.0639
    1OPC    D2B72035  25.237  20.720   4.241 -0.1295 -0.1272 -0.1951
    1OPC    C3B72036  24.935  20.803   4.603 -0.1859 -0.0270 -0.1881
    1OPC    C4B72037  24.595  21.144   4.414  0.1926  0.0964 -0.2582
    1OPC    NC372038  15.631  22.757   0.893  0.1549 -0.0366  0.0217
    1OPC    PO472039  15.596  22.374   0.847 -0.0667  0.1860 -0.0277
    1OPC    GL172040  15.748  22.404   1.295  0.0803  0.3340 -0.1396
    1OPC    GL272041  15.901  22.506   1.668 -0.0821 -0.0049  0.1323
    1OPC    C1B72042  15.976  22.704   2.071  0.0387  0.2872 -0.0453
    1OPC    D2B72043  16.128  22.751   2.507 -0.0092 -0.2322 -0.1038
    1OPC    C3B72044  16.358  22.549   2.689  0.0794  0.1184  0.1209
    1OPC    C4B72045  16.654  22.387   2.838 -0.0200 -0.3873 -0.1174
    1OPC    NC372046   7.187  21.670   2.244  0.0404  0.0248 -0.2292
    1OPC    PO472047   6.782  21.878   2.188 -0.2727  0.1920  0.0014
    1OPC    GL172048   6.615  21.990   2.553  0.3625  0.0029 -0.1742
    1OPC    GL272049   6.503  21.849   2.805 -0.0530 -0.3328  0.1947
    1OPC    C1B72050   6.382  22.027   3.197 -0.3290 -0.2256 -0.0462
    1OPC    D2B72051   6.571  22.282   3.464  0.2195 -0.0328  0.0802
    1OPC    C3B72052   6.253  22.463   3.736 -0.0245  0.2103  0.0080
    1OPC    C4B72053   6.417  22.453   4.190 -0.3726  0.2162  0.1658
    1OPC    NC372054  15.692  20.011   1.752  0.1602  0.1172 -0.3900
    1OPC    PO472055  15.178  19.977   1.732  0.1319 -0.1089  0.1309
    1OPC    GL172056  15.300  19.908   2.088 -0.0383  0.0698  0.1015
    1OPC    GL272057  15.500  20.080   2.288 -0.0850  0.1376  0.1564
    1OPC    C1B72058  15.636  20.174   2.608 -0.0209 -0.1191 -0.1002
    1OPC    D2B72059  15.963  20.292   2.871 -0.2068  0.0505 -0.0093
    1OPC    C3B72060  15.998  20.525   3.272  0.2210 -0.0850 -0.2754
    1OPC    C4B72061  15.640  20.694   3.531 -0.3370 -0.0702  0.0645
    1OPC    NC372062  15.073  14.487   2.350 -0.2696  0.3659  0.1443
    1OPC    PO472063  15.405  14.227   2.324  0.3289 -0.0277 -0.2690
    1OPC    GL172064  15.314  13.930   2.653  0.2287 -0.1263  0.3531
    1OPC    GL272065  15.282  13.660   2.804 -0.1240  0.0415 -0.2126
    1OPC    C1B72066  15.060  13.622   3.232 -0.1342 -0.0053 -0.0128
    1OPC    D2B72067  15.059  13.570   3.690  0.0649  0.2032  0.0417
    1OPC    C3B72068  14.950  13.833   3.975 -0.2861  0.0370 -0.0313
    1OPC    C4B72069  14.677  13.814   4.344 -0.0967  0.3515  0.4504
    1OPC    NC372070  21.508  21.795   2.413  0.1215  0.0921  0.0514
    1OPC    PO472071  21.958  21.716   2.391  0.2232  0.4249  0.1690
    1OPC    GL172072  22.099  21.999   2.762  0.3366  0.0205  0.3568
    1OPC    GL272073  22.290  21.934   3.050 -0.2847  0.1782 -0.2774
    1OPC    C1B72074  22.233  21.835   3.453 -0.0987  0.3780  0.3643
    1OPC    D2B72075  22.140  21.583   3.761  0.1223 -0.0423  0.1025
    1OPC    C3B72076  22.081  21.528   4.169  0.3550 -0.0677  0.0416
    1OPC    C4B72077  21.833  21.365   4.523  0.0143 -0.3258  0.1154
    1OPC    NC372078  14.370  12.249   1.699  0.0706 -0.0560  0.0540
    1OPC    PO472079  14.227  12.346   2.075 -0.1035  0.0507  0.1191
    1OPC    GL172080  13.983  12.439   2.475  0.0104 -0.3606 -0.2756
    1OPC    GL272081  14.053  12.436   2.822 -0.1910  0.1015  0.0891
    1OPC    C1B72082  13.955  12.586   3.244  0.0828  0.3319  0.3464
    1OPC    D2B72083  13.615  12.529   3.530  0.1090  0.1569 -0.0192
    1OPC    C3B72084  13.685  12.700   3.962 -0.1071 -0.1060 -0.0111
    1OPC    C4B72085  13.603  13.046   4.261 -0.0626 -0.1218  0.2842
    1OPC    NC372086  20.096  23.689   2.065 -0.1839  0.0998  0.2214
    1OPC    PO472087  20.196  23.984   2.351  0.0142  0.3766  0.1615
    1OPC    GL172088  19.851  24.121   2.615  0.1558  0.0073 -0.1088
    1OPC    GL272089  19.766  24.119   2.922  0.1031 -0.1134 -0.0375
    1OPC    C1B72090  19.730  24.130   3.353  0.2233 -0.1910  0.0469
    1OPC    D2B72091  19.809  23.851   3.788  0.0492 -0.1781  0.2160
    1OPC    C3B72092  19.394  23.646   3.828 -0.0309  0.0338 -0.0478
    1OPC    C4B72093  19.146  23.289   3.550 -0.0106  0.0499  0.1159
    1OPC    NC372094  12.395  11.373   2.055 -0.0801  0.3815  0.0805
    1OPC    PO472095  12.589  11.743   2.132  0.2487 -0.1465  0.1196
    1OPC    GL172096  12.695  11.727   2.626 -0.3408 -0.3987 -0.0934
    1OPC    GL272097  12.834  11.451   2.805 -0.0683 -0.1496 -0.0947
    1OPC    C1B72098  12.857  11.387   3.262  0.0219 -0.0096  0.0810
    1OPC    D2B72099  12.969  11.094   3.616  0.2274 -0.0410 -0.2086
    1OPC    C3B72100  12.683  11.087   3.846 -0.0985  0.2176  0.0538
    1OPC    C4B72101  12.304  10.990   4.021 -0.0470 -0.2009 -0.0358
    1OPC    NC372102   0.882  15.397   2.317  0.0084 -0.2270  0.0164
    1OPC    PO472103   0.510  15.655   2.503  0.1152 -0.3586 -0.0045
    1OPC    GL172104   0.534  15.904   2.901  0.1053 -0.1873  0.1283
    1OPC    GL272105   0.621  16.190   3.190  0.0972 -0.1033 -0.2503
    1OPC    C1B72106   0.803  16.392   3.448  0.3699  0.0081  0.1758
    1OPC    D2B72107   0.685  16.566   3.834  0.0406 -0.0566  0.0420
    1OPC    C3B72108   0.547  16.161   3.958 -0.0279  0.0340 -0.1962
    1OPC    C4B72109   0.282  15.879   3.892  0.2292 -0.1204  0.1704
    1OPC    NC372110  28.365  14.113   2.249 -0.1090 -0.0458 -0.3332
    1OPC    PO472111  28.781  14.240   2.467  0.0542  0.1886 -0.3255
    1OPC    GL172112  28.762  14.199   2.862  0.2444  0.1741 -0.1666
    1OPC    GL272113  28.527  14.184   3.177 -0.2085  0.2500  0.2115
    1OPC    C1B72114  28.370  14.250   3.541  0.1290  0.0723 -0.2062
    1OPC    D2B72115  28.038  14.336   3.868 -0.0351  0.1979  0.1046
    1OPC    C3B72116  28.164  14.466   4.286  0.1444  0.0570  0.0796
    1OPC    C4B72117  28.073  14.513   4.751  0.0121  0.4016 -0.1050
    1OPC    NC372118   4.077  13.046   2.508 -0.3083  0.0342  0.1211
    1OPC    PO472119   3.661  13.333   2.492 -0.1827  0.1540  0.1089
    1OPC    GL172120   3.808  13.251   2.875  0.0579  0.0632  0.2581
    1OPC    GL272121   3.753  13.205   3.188 -0.0087 -0.0686  0.1376
    1OPC    C1B72122   4.006  12.893   3.340 -0.0528 -0.2416 -0.1517
    1OPC    D2B72123   4.496  12.773   3.364  0.2040  0.2479 -0.2769
    1OPC    C3B72124   4.550  12.533   3.732 -0.4129 -0.0020  0.1608
    1OPC    C4B72125   4.590  12.195   4.070 -0.0118 -0.0672 -0.0067
    1OPC    NC372126   5.708  13.758   2.272  0.1945  0.0249 -0.2490
    1OPC    PO472127   5.556  13.406   2.478 -0.1437  0.1815  0.1699
    1OPC    GL172128   5.472  13.404   2.928 -0.0488  0.0305  0.1857
    1OPC    GL272129   5.235  13.590   3.085  0.1409 -0.1597 -0.1173
    1OPC    C1B72130   5.009  13.878   3.435 -0.2710  0.0457  0.5694
    1OPC    D2B72131   5.179  13.915   3.924 -0.2497 -0.0108  0.1244
    1OPC    C3B72132   5.541  13.625   3.929 -0.0516  0.2867  0.2419
    1OPC    C4B72133   6.030  13.733   4.132  0.1053  0.3086  0.2925
    1OPC    NC372134  20.504   0.319   2.929  0.2988 -0.3648  0.0974
    1OPC    PO472135  20.617   0.644   3.122 -0.1367 -0.0004  0.1760
    1OPC    GL172136  20.904   0.617   3.448  0.1672  0.1328  0.1777
    1OPC    GL272137  21.092   0.759   3.741  0.2596  0.0041 -0.1468
    1OPC    C1B72138  21.169   0.789   4.167  0.0846  0.2506  0.2367
    1OPC    D2B72139  21.446   0.914   4.530  0.0708  0.0315 -0.1058
    1OPC    C3B72140  21.849   0.803   4.745  0.3378  0.1356 -0.0478
    1OPC    C4B72141  22.231   0.926   4.619  0.0290 -0.2353  0.1627
    1OPC    NC372142   8.719  14.602   2.394 -0.2210  0.4114 -0.2046
    1OPC    PO472143   8.509  14.339   2.215  0.1635 -0.0853  0.0343
    1OPC    GL172144   8.606  14.103   2.472  0.1394 -0.0780 -0.0332
    1OPC    GL272145   8.590  13.994   2.693  0.4806 -0.2513  0.0238
    1OPC    C1B72146   8.688  13.981   3.186 -0.0423 -0.0104  0.0866
    1OPC    D2B72147   8.867  13.987   3.643 -0.2923  0.0205  0.0209
    1OPC    C3B72148   8.936  14.331   3.976  0.3321 -0.3214  0.2336
    1OPC    C4B72149   8.739  14.335   4.374  0.0045 -0.0695 -0.3216
    1OPC    NC372150  24.341  17.012   2.047 -0.4510  0.0269 -0.3942
    1OPC    PO472151  24.604  17.054   2.289 -0.0031  0.0932  0.0244
    1OPC    GL172152  24.463  17.228   2.750 -0.0479  0.0502 -0.0062
    1OPC    GL272153  24.453  17.219   3.072  0.0053 -0.2996 -0.0896
    1OPC    C1B72154  24.253  17.164   3.485 -0.3402 -0.1679  0.0726
    1OPC    D2B72155  24.323  17.257   3.886 -0.0701  0.1853 -0.0857
    1OPC    C3B72156  24.320  17.081   4.315 -0.1294 -0.1320 -0.5211
    1OPC    C4B72157  24.157  16.752   4.424  0.0448  0.1419 -0.2758
    1OPC    NC372158  16.684   9.135   2.648 -0.0560  0.2615 -0.2062
    1OPC    PO472159  16.731   9.573   2.733 -0.0318  0.3285  0.2749
    1OPC    GL172160  16.702   9.627   3.147  0.0797 -0.2078 -0.2770
    1OPC    GL272161  16.851   9.702   3.424  0.2659  0.0683 -0.1447
    1OPC    C1B72162  17.009   9.685   3.815 -0.1178 -0.2468  0.2642
    1OPC    D2B72163  16.923   9.655   4.230 -0.2424  0.2797  0.2130
    1OPC    C3B72164  17.092   9.889   4.548 -0.2294  0.2572 -0.4923
    1OPC    C4B72165  17.164   9.968   4.944 -0.0354 -0.0169 -0.1404
    1OPC    NC372166  21.733   9.112   2.741 -0.2461  0.0719 -0.1652
    1OPC    PO472167  21.721   9.534   2.850 -0.1608 -0.0104  0.0274
    1OPC    GL172168  21.452   9.429   3.103  0.0371  0.0413 -0.1694
    1OPC    GL272169  21.176   9.676   3.178 -0.4251  0.0794  0.0744
    1OPC    C1B72170  21.184   9.957   3.507  0.2596  0.1495 -0.4280
    1OPC    D2B72171  21.258  10.094   3.867  0.3251 -0.0737 -0.1687
    1OPC    C3B72172  21.303  10.106   4.372 -0.5093 -0.0579 -0.0802
    1OPC    C4B72173  21.205  10.075   4.802 -0.2158 -0.1818 -0.0398
    1OPC    NC372174  10.777  22.257   1.427 -0.1274 -0.0507 -0.0500
    1OPC    PO472175  11.001  22.644   1.593 -0.2541  0.2589 -0.0019
    1OPC    GL172176  10.862  22.560   1.967 -0.3461 -0.2081 -0.0231
    1OPC    GL272177  10.979  22.646   2.203 -0.1148 -0.1058 -0.1859
    1OPC    C1B72178  11.034  22.877   2.644 -0.1634  0.0753 -0.4635
    1OPC    D2B72179  10.960  23.154   3.114 -0.3572  0.3658  0.3017
    1OPC    C3B72180  11.009  23.613   3.014 -0.3784 -0.0931 -0.0053
    1OPC    C4B72181  11.198  24.021   3.068  0.5119 -0.1824 -0.1444
    1OPC    NC372182   5.547  14.386   1.810 -0.1143  0.0968 -0.0548
    1OPC    PO472183   5.498  14.253   2.220 -0.1553  0.1764 -0.1612
    1OPC    GL172184   5.544  14.460   2.661  0.2139 -0.0638 -0.0702
    1OPC    GL272185   5.664  14.532   2.870  0.1437 -0.2419 -0.0994
    1OPC    C1B72186   5.703  14.599   3.258  0.1225 -0.3115  0.0809
    1OPC    D2B72187   5.586  14.397   3.611  0.0407 -0.0410  0.1214
    1OPC    C3B72188   5.606  14.150   4.022 -0.0837 -0.0910  0.2317
    1OPC    C4B72189   5.269  14.032   4.445 -0.0192  0.0098  0.0446
    1OPC    NC372190  23.515   4.684   3.577 -0.0818 -0.0561 -0.0379
    1OPC    PO472191  23.938   4.735   3.427 -0.2887  0.0557  0.0184
    1OPC    GL172192  23.971   4.613   3.874  0.0216 -0.1994  0.1260
    1OPC    GL272193  24.061   4.678   4.233  0.0255  0.2925  0.2097
    1OPC    C1B72194  24.304   4.624   4.692 -0.1817  0.0951 -0.1521
    1OPC    D2B72195  24.616   4.362   4.918  0.0473  0.2389 -0.1575
    1OPC    C3B72196  24.421   4.282   5.355 -0.3503  0.0437  0.1162
    1OPC    C4B72197  24.025   4.093   5.424  0.0030 -0.1719 -0.1280
    1OPC    NC372198  20.415  15.979   1.499  0.2755 -0.0091 -0.1087
    1OPC    PO472199  20.498  15.984   1.972 -0.0349  0.1456  0.3329
    1OPC    GL172200  20.439  15.792   2.341  0.4064 -0.0846 -0.1416
    1OPC    GL272201  20.322  15.790   2.671 -0.1562  0.1055 -0.1576
    1OPC    C1B72202  20.321  15.679   3.061  0.2322 -0.0926  0.0245
    1OPC    D2B72203  20.245  15.375   3.392  0.0723 -0.0012 -0.0971
    1OPC    C3B72204  20.281  15.428   3.852 -0.0970  0.0579  0.0876
    1OPC    C4B72205  19.904  15.524   4.034 -0.1160 -0.2519 -0.2405
    1OPC    NC372206  18.505   0.068   2.861  0.2653 -0.1626  0.0214
    1OPC    PO472207  18.433  29.686   3.298 -0.1636  0.1199 -0.0953
    1OPC    GL172208  18.605  29.444   3.681 -0.1591  0.1419 -0.0199
    1OPC    GL272209  18.737  29.251   4.017  0.2285  0.1041  0.1641
    1OPC    C1B72210  18.759  28.964   4.260  0.1203  0.0986  0.0597
    1OPC    D2B72211  18.809  28.734   4.634 -0.1944  0.3168 -0.0227
    1OPC    C3B72212  19.150  28.628   4.756 -0.1991 -0.2814  0.0281
    1OPC    C4B72213  19.455  28.680   5.181 -0.0151  0.0495 -0.0978
    1OPC    NC372214  18.424  19.832   1.594  0.1591  0.2524  0.3374
    1OPC    PO472215  18.611  19.804   1.966  0.1069  0.2229  0.2864
    1OPC    GL172216  18.307  19.940   2.154 -0.2696 -0.2102 -0.2824
    1OPC    GL272217  18.241  20.140   2.401  0.1879 -0.2177 -0.3062
    1OPC    C1B72218  18.529  20.361   2.721  0.0284  0.1721  0.2304
    1OPC    D2B72219  18.537  20.332   3.196 -0.0657 -0.1163  0.2167
    1OPC    C3B72220  18.347  19.999   3.459 -0.1906 -0.3433  0.2441
    1OPC    C4B72221  18.328  19.796   3.704 -0.1921 -0.1326  0.1821
    1OPC    NC372222   3.035  22.647   1.580 -0.1359  0.0606  0.1105
    1OPC    PO472223   2.927  22.360   1.941  0.1322 -0.1539  0.3098
    1OPC    GL172224   3.254  22.311   2.272 -0.0502 -0.0133 -0.0317
    1OPC    GL272225   3.348  22.335   2.607 -0.0726 -0.0241  0.1848
    1OPC    C1B72226   3.316  22.338   3.196  0.3336 -0.0643 -0.4229
    1OPC    D2B72227   3.564  22.293   3.559  0.0335  0.2278 -0.1002
    1OPC    C3B72228   3.569  22.186   3.937  0.3327 -0.1678 -0.3780
    1OPC    C4B72229   3.435  21.911   4.279 -0.0851  0.1424 -0.0119
    1OPC    NC372230   4.338   0.904   2.161  0.1487  0.2201 -0.4760
    1OPC    PO472231   4.708   1.119   2.298 -0.0442  0.2867 -0.1784
    1OPC    GL172232   4.556   1.060   2.641 -0.2177  0.0508  0.0684
    1OPC    GL272233   4.587   1.081   2.958  0.2486 -0.1130 -0.0471
    1OPC    C1B72234   4.287   1.271   3.350  0.1232  0.0258 -0.1089
    1OPC    D2B72235   4.076   1.168   3.685 -0.1081  0.0558 -0.4953
    1OPC    C3B72236   4.181   1.119   4.148 -0.1790  0.2622  0.2304
    1OPC    C4B72237   4.453   0.765   4.367  0.0421 -0.2282 -0.0391
    1OPC    NC372238   1.139   0.957   2.198  0.4494  0.0882 -0.4728
    1OPC    PO472239   1.190   1.135   2.523  0.1677  0.2592  0.1195
    1OPC    GL172240   1.233   1.041   2.843 -0.0076 -0.0471  0.1753
    1OPC    GL272241   1.322   0.824   3.050 -0.2171 -0.0834  0.3499
    1OPC    C1B72242   1.234   0.549   3.447  0.2793 -0.2555  0.2021
    1OPC    D2B72243   1.295   0.304   3.786 -0.1577  0.0895  0.1421
    1OPC    C3B72244   1.643   0.220   4.083 -0.0034 -0.0305  0.0344
    1OPC    C4B72245   1.977  29.847   4.158  0.1669  0.0619 -0.0689
    1OPC    NC372246   0.774  16.608   2.332 -0.0590  0.0566 -0.1085
    1OPC    PO472247   1.162  16.551   2.522 -0.2399  0.0415  0.1418
    1OPC    GL172248   1.572  16.363   2.568 -0.0556 -0.0725  0.0331
    1OPC    GL272249   1.669  16.450   2.876  0.1701  0.4038  0.3473
    1OPC    C1B72250   1.526  16.245   3.300 -0.3373 -0.0308 -0.0465
    1OPC    D2B72251   1.771  16.239   3.699  0.0754  0.3033  0.0227
    1OPC    C3B72252   1.774  15.959   4.024  0.1843  0.0464 -0.0254
    1OPC    C4B72253   1.663  15.627   4.387  0.0817  0.1187 -0.1546
    1OPC    NC372254  26.812  13.843   1.979  0.1363 -0.2627 -0.1163
    1OPC    PO472255  26.555  13.706   2.356  0.1595 -0.0928 -0.0469
    1OPC    GL172256  26.824  13.637   2.755 -0.1855 -0.1499 -0.2874
    1OPC    GL272257  26.860  13.654   3.155 -0.0379 -0.0290 -0.0506
    1OPC    C1B72258  26.889  13.588   3.518 -0.0384  0.1604  0.0632
    1OPC    D2B72259  27.031  13.432   3.911  0.0134  0.0607 -0.0331
    1OPC    C3B72260  27.208  13.307   4.270 -0.0844 -0.2958  0.0198
    1OPC    C4B72261  27.296  12.964   4.610 -0.0187 -0.2028  0.3716
    1OPC    NC372262   1.613  26.660   1.595 -0.0295  0.1482 -0.0251
    1OPC    PO472263   2.001  26.629   1.464  0.1316  0.2155 -0.2226
    1OPC    GL172264   2.324  26.350   1.608 -0.0274 -0.1570  0.0365
    1OPC    GL272265   2.274  26.261   1.867 -0.1370  0.0647  0.2386
    1OPC    C1B72266   2.152  26.230   2.322  0.0076 -0.2600 -0.2923
    1OPC    D2B72267   1.816  26.570   2.540 -0.4094 -0.1464  0.1545
    1OPC    C3B72268   1.729  26.989   2.348  0.1517 -0.0168  0.1778
    1OPC    C4B72269   1.884  27.395   2.356  0.0110 -0.0343  0.2079
    1OPC    NC372270  29.377   1.270   2.133  0.0621  0.0215 -0.1610
    1OPC    PO472271  29.256   1.553   2.425  0.0687 -0.0003 -0.0766
    1OPC    GL172272  29.322   1.549   2.742  0.2282 -0.1298 -0.0780
    1OPC    GL272273  29.142   1.353   3.006 -0.0836  0.2027  0.0382
    1OPC    C1B72274  29.009   1.364   3.374  0.2393 -0.0394  0.1041
    1OPC    D2B72275  28.915   1.630   3.656  0.0800 -0.2049  0.2771
    1OPC    C3B72276  28.631   1.457   4.071  0.0337 -0.0715  0.0654
    1OPC    C4B72277  28.642   1.372   4.460 -0.0103 -0.2618 -0.4142
    1OPC    NC372278  12.177   3.919   3.492 -0.0792  0.0995  0.0550
    1OPC    PO472279  12.389   3.616   3.723 -0.0097 -0.0430  0.1986
    1OPC    GL172280  12.348   3.624   4.084  0.1330 -0.1303  0.0763
    1OPC    GL272281  12.259   3.690   4.322 -0.0196 -0.0644  0.0571
    1OPC    C1B72282  12.098   3.423   4.747  0.0001 -0.0179 -0.1257
    1OPC    D2B72283  11.984   3.203   5.038 -0.0072  0.0177 -0.1313
    1OPC    C3B72284  12.149   3.379   5.344 -0.0682 -0.1073 -0.1716
    1OPC    C4B72285  12.006   3.408   5.834 -0.0265  0.1953  0.1472
    1OPC    NC372286  17.724  28.361   2.478 -0.2739  0.2753  0.1220
    1OPC    PO472287  18.038  28.538   2.695  0.0448  0.0261  0.3779
    1OPC    GL172288  17.979  28.322   3.037  0.0237  0.3262 -0.2083
    1OPC    GL272289  17.981  28.172   3.223  0.3630  0.0678  0.1259
    1OPC    C1B72290  17.823  28.134   3.618 -0.4380 -0.3267 -0.1590
    1OPC    D2B72291  17.665  28.258   3.947  0.1666 -0.1716  0.0190
    1OPC    C3B72292  17.532  28.597   3.872  0.0186 -0.1245 -0.2035
    1OPC    C4B72293  17.164  28.576   3.590 -0.1234 -0.0950 -0.2994
    1OPC    NC372294  26.119   2.913   2.869 -0.4801 -0.1482 -0.0837
    1OPC    PO472295  25.663   2.671   3.007 -0.0904 -0.0343  0.0166
    1OPC    GL172296  25.674   2.613   3.334 -0.2705  0.0059 -0.1098
    1OPC    GL272297  25.493   2.747   3.563 -0.0386 -0.0295 -0.0197
    1OPC    C1B72298  25.475   2.807   4.028 -0.0919 -0.2093  0.0806
    1OPC    D2B72299  25.591   3.023   4.488  0.0212 -0.1353 -0.1858
    1OPC    C3B72300  25.339   3.328   4.720  0.1370 -0.0742  0.1885
    1OPC    C4B72301  24.918   3.531   4.800  0.0840 -0.1429  0.2138
    1OPC    NC372302  20.057   6.331   3.641  0.0562  0.0476 -0.0238
    1OPC    PO472303  20.314   6.544   3.342  0.1161 -0.0966  0.2212
    1OPC    GL172304  20.431   6.755   3.677 -0.2133 -0.1472  0.0697
    1OPC    GL272305  20.665   6.928   3.886 -0.0922  0.2497 -0.3257
    1OPC    C1B72306  20.569   7.028   4.367 -0.0046 -0.1039 -0.0231
    1OPC    D2B72307  20.266   7.161   4.695 -0.2156 -0.1266  0.1065
    1OPC    C3B72308  20.156   7.356   5.105 -0.2359  0.3590  0.0936
    1OPC    C4B72309  20.071   7.496   5.516  0.0184 -0.0695 -0.1354
    1OPC    NC372310  29.043  22.148   2.156 -0.1279 -0.0564  0.1194
    1OPC    PO472311  29.069  22.345   2.565  0.1618  0.0434 -0.0450
    1OPC    GL172312  29.305  22.317   3.005 -0.1171 -0.1885 -0.2296
    1OPC    GL272313  29.444  22.682   3.144  0.0657 -0.0488 -0.3168
    1OPC    C1B72314  29.731  22.718   3.378  0.3725 -0.1811 -0.0991
    1OPC    D2B72315   0.300  22.709   3.424 -0.2758  0.1854  0.0485
    1OPC    C3B72316   0.459  22.755   3.860 -0.3286  0.1929 -0.3652
    1OPC    C4B72317   0.682  22.416   4.183  0.1486 -0.3505  0.0269
    1OPC    NC372318  16.963  13.692   2.611 -0.0357 -0.1006 -0.0250
    1OPC    PO472319  16.626  13.629   2.435  0.2952 -0.1658  0.1708
    1OPC    GL172320  16.388  13.964   2.494 -0.2206 -0.0463 -0.3322
    1OPC    GL272321  16.256  14.109   2.769 -0.0159 -0.0293  0.2971
    1OPC    C1B72322  16.014  14.275   3.150  0.0382  0.0882 -0.6443
    1OPC    D2B72323  16.129  14.481   3.598 -0.1074  0.0513 -0.2490
    1OPC    C3B72324  16.017  14.537   4.065  0.0047  0.3259  0.0995
    1OPC    C4B72325  15.736  14.885   4.335 -0.1916 -0.2986  0.2368
    1OPC    NC372326  16.798  26.054   1.995  0.1108  0.2545 -0.1406
    1OPC    PO472327  16.517  26.326   2.150 -0.1791  0.1790 -0.2217
    1OPC    GL172328  16.878  26.359   2.390  0.2372 -0.0892 -0.4031
    1OPC    GL272329  17.142  26.166   2.603  0.0817 -0.2977 -0.3358
    1OPC    C1B72330  17.134  25.740   2.941 -0.0987  0.0932 -0.2441
    1OPC    D2B72331  17.036  25.463   3.373 -0.2753 -0.2517  0.1515
    1OPC    C3B72332  17.185  24.966   3.505 -0.1809  0.0988 -0.0569
    1OPC    C4B72333  17.387  24.627   3.725  0.0175  0.1576 -0.1480
    1OPC    NC372334  25.754  26.977   2.252 -0.1031 -0.0310  0.0595
    1OPC    PO472335  26.099  26.918   2.370  0.3201  0.1400 -0.1700
    1OPC    GL172336  26.216  26.926   2.699  0.1313 -0.1804 -0.0315
    1OPC    GL272337  26.369  27.112   2.828 -0.3670  0.0961  0.0674
    1OPC    C1B72338  26.420  27.240   3.205 -0.0303 -0.2783  0.0819
    1OPC    D2B72339  26.750  27.388   3.521 -0.0562  0.4318 -0.0682
    1OPC    C3B72340  27.064  27.150   3.828 -0.0296 -0.1317 -0.4228
    1OPC    C4B72341  27.028  27.016   4.280  0.3027 -0.0666  0.2888
    1OPC    NC372342  15.733   4.455   3.919 -0.1257 -0.3116 -0.3335
    1OPC    PO472343  16.014   4.116   3.814  0.2680 -0.2889  0.1124
    1OPC    GL172344  15.754   4.011   4.162 -0.0474  0.5481  0.0768
    1OPC    GL272345  15.581   3.868   4.416  0.0241 -0.0772  0.0949
    1OPC    C1B72346  15.469   3.819   4.854  0.1691  0.0903  0.1454
    1OPC    D2B72347  15.447   3.855   5.267  0.2958  0.1327  0.0674
    1OPC    C3B72348  15.692   3.442   5.468  0.0549 -0.1343 -0.1023
    1OPC    C4B72349  15.941   3.167   5.869  0.2135 -0.3885 -0.0036
    1OPC    NC372350  21.769  17.859   1.179 -0.2826  0.0588 -0.2525
    1OPC    PO472351  22.174  17.944   1.294  0.1886  0.0333  0.0871
    1OPC    GL172352  21.891  17.732   1.641 -0.1275 -0.0629 -0.1054
    1OPC    GL272353  21.837  17.655   1.962 -0.0343  0.2405  0.0330
    1OPC    C1B72354  21.641  17.616   2.362  0.3597  0.0942 -0.0716
    1OPC    D2B72355  21.742  17.594   2.847  0.1176 -0.0877 -0.0741
    1OPC    C3B72356  21.773  17.849   3.119  0.2322 -0.1139 -0.1958
    1OPC    C4B72357  21.624  18.128   3.344 -0.1033  0.0413  0.1284
    1OPC    NC372358   1.455   7.526   2.112  0.0149  0.1470 -0.3357
    1OPC    PO472359   1.171   7.417   2.520 -0.1676 -0.1346  0.0431
    1OPC    GL172360   1.301   7.294   2.931  0.2971  0.0682 -0.0865
    1OPC    GL272361   1.307   7.282   3.254 -0.2106  0.2644  0.1109
    1OPC    C1B72362   1.387   7.070   3.650  0.2143 -0.2043 -0.0832
    1OPC    D2B72363   1.298   6.932   4.066  0.1397  0.2670 -0.0030
    1OPC    C3B72364   1.225   6.752   4.467  0.5042 -0.4357 -0.1108
    1OPC    C4B72365   1.084   6.275   4.658  0.2578  0.0033 -0.1942
    1OPC    NC372366  16.700   2.450   4.067 -0.0677 -0.0601  0.0436
    1OPC    PO472367  17.086   2.739   3.997  0.2748  0.0494 -0.3105
    1OPC    GL172368  17.080   2.628   4.498  0.2119  0.0123  0.4336
    1OPC    GL272369  17.057   2.544   4.909 -0.0609  0.2156 -0.0705
    1OPC    C1B72370  16.940   2.552   5.316  0.1687  0.0826 -0.1434
    1OPC    D2B72371  17.074   2.311   5.615 -0.0443 -0.3042 -0.1194
    1OPC    C3B72372  17.418   2.026   5.679  0.1055  0.3453  0.1813
    1OPC    C4B72373  17.648   1.805   5.851  0.0002  0.0662  0.0909
    1OPC    NC372374  16.355  18.904   1.554 -0.5570  0.0884 -0.1417
    1OPC    PO472375  15.995  19.170   1.775  0.1066 -0.2723  0.1724
    1OPC    GL172376  16.226  19.199   2.215 -0.0530  0.2397 -0.1726
    1OPC    GL272377  16.197  19.166   2.484  0.2817 -0.1774  0.1480
    1OPC    C1B72378  16.225  19.040   2.879 -0.0839 -0.1864  0.2457
    1OPC    D2B72379  16.383  18.910   3.277  0.2415  0.0380  0.0736
    1OPC    C3B72380  16.483  19.293   3.437 -0.3556  0.2851  0.0149
    1OPC    C4B72381  16.432  19.612   3.675  0.1875  0.1749 -0.2646
    1OPC    NC372382  20.322   7.744   2.853  0.1594  0.1655 -0.0454
    1OPC    PO472383  20.270   7.447   3.204  0.2011 -0.1754  0.3425
    1OPC    GL172384  20.068   7.711   3.572  0.0541  0.1781  0.0526
    1OPC    GL272385  19.989   7.700   3.875  0.0170 -0.2311 -0.1340
    1OPC    C1B72386  19.753   7.757   4.186 -0.1825  0.4451  0.1665
    1OPC    D2B72387  19.613   7.914   4.562  0.0217  0.1396 -0.2835
    1OPC    C3B72388  19.308   7.843   4.959 -0.1181  0.0174  0.1846
    1OPC    C4B72389  19.001   8.078   5.304  0.3007  0.1386  0.1462
    1OPC    NC372390  27.171   4.488   3.143  0.1251  0.0250  0.2072
    1OPC    PO472391  26.881   4.119   3.072  0.1519  0.2197 -0.2690
    1OPC    GL172392  27.038   3.983   3.429 -0.1308 -0.6865 -0.0863
    1OPC    GL272393  26.932   3.815   3.576  0.1654 -0.1417  0.3492
    1OPC    C1B72394  26.847   3.598   3.868 -0.3668  0.3816 -0.0547
    1OPC    D2B72395  26.670   3.161   4.034  0.1235  0.1587  0.0015
    1OPC    C3B72396  26.397   2.933   4.234  0.2108 -0.0839 -0.1656
    1OPC    C4B72397  26.015   2.803   4.233  0.0637 -0.1081 -0.0270
    1OPC    NC372398  13.946  14.553   2.398 -0.0612  0.0643 -0.1626
    1OPC    PO472399  14.036  14.190   2.277 -0.1692 -0.1454 -0.1660
    1OPC    GL172400  14.238  14.139   2.620  0.1080 -0.3462  0.1915
    1OPC    GL272401  14.370  14.185   2.825 -0.0666 -0.0678 -0.0029
    1OPC    C1B72402  14.318  14.369   3.208  0.1534  0.3677 -0.2650
    1OPC    D2B72403  13.946  14.300   3.589 -0.0138 -0.0259  0.0862
    1OPC    C3B72404  13.985  14.086   3.918 -0.1655 -0.0489 -0.0183
    1OPC    C4B72405  14.083  13.809   4.203 -0.2408  0.2783 -0.0367
    1OPC    NC372406   4.730  15.140   2.703  0.0976  0.1437 -0.0800
    1OPC    PO472407   4.916  15.676   2.547  0.1647  0.0185  0.1582
    1OPC    GL172408   5.104  15.467   2.920 -0.1753 -0.2065  0.1554
    1OPC    GL272409   5.129  15.621   3.290 -0.0077 -0.0739  0.1454
    1OPC    C1B72410   5.216  15.524   3.776  0.0405  0.0520  0.4950
    1OPC    D2B72411   5.416  15.892   4.057  0.1245  0.0520 -0.1764
    1OPC    C3B72412   5.379  16.010   4.470  0.2340  0.1863  0.1388
    1OPC    C4B72413   5.430  16.312   4.702 -0.1932 -0.0854  0.2284
    1OPC    NC372414  19.568   2.103   3.991 -0.2295  0.3418  0.1251
    1OPC    PO472415  19.715   2.085   3.667 -0.0335  0.1971  0.3888
    1OPC    GL172416  19.893   1.740   3.814 -0.0096  0.0354  0.0979
    1OPC    GL272417  19.892   1.724   4.139  0.1159 -0.1132  0.1754
    1OPC    C1B72418  20.028   1.924   4.534  0.0084  0.1427 -0.1557
    1OPC    D2B72419  20.034   1.789   4.933 -0.2156  0.0662 -0.2587
    1OPC    C3B72420  20.095   1.858   5.314 -0.2962  0.0663 -0.0505
    1OPC    C4B72421  20.040   1.701   5.712  0.0376  0.0559 -0.2616
    1OPC    NC372422  25.871  19.229   2.082  0.4613  0.3629 -0.1259
    1OPC    PO472423  26.245  19.398   2.062  0.2664  0.2437  0.1036
    1OPC    GL172424  26.206  19.325   2.580 -0.0247 -0.1309  0.2435
    1OPC    GL272425  26.065  19.397   2.901  0.2462  0.0082  0.1428
    1OPC    C1B72426  25.989  19.287   3.315  0.1340  0.0347  0.0824
    1OPC    D2B72427  25.584  19.296   3.670  0.0998  0.2773 -0.2595
    1OPC    C3B72428  25.244  19.626   3.803 -0.0675  0.0293 -0.1864
    1OPC    C4B72429  25.160  19.736   4.177 -0.0468 -0.1413  0.0177
    1OPC    NC372430  28.556  15.887   2.823  0.1964  0.0321  0.3055
    1OPC    PO472431  28.151  15.744   2.780 -0.2160 -0.2041  0.1171
    1OPC    GL172432  28.147  15.593   3.227 -0.2477 -0.0648  0.2993
    1OPC    GL272433  28.043  15.695   3.406 -0.2254 -0.1985  0.0740
    1OPC    C1B72434  27.870  15.732   3.820  0.3141 -0.4899  0.0011
    1OPC    D2B72435  27.993  15.690   4.281  0.1768 -0.1761  0.2247
    1OPC    C3B72436  28.309  15.947   4.464 -0.1385 -0.1014  0.2094
    1OPC    C4B72437  28.376  16.300   4.733  0.1880  0.0730  0.2336
    1OPC    NC372438  22.642  18.143   1.218 -0.1331  0.2551 -0.0334
    1OPC    PO472439  22.499  18.251   1.584  0.0664  0.0782  0.3314
    1OPC    GL172440  22.360  17.864   1.956 -0.0317 -0.2330 -0.0403
    1OPC    GL272441  22.135  17.977   2.178  0.0599 -0.0532 -0.0027
    1OPC    C1B72442  22.127  17.714   2.481  0.0722  0.2242 -0.3884
    1OPC    D2B72443  22.192  17.764   2.903 -0.0483 -0.0730 -0.2061
    1OPC    C3B72444  22.102  17.489   3.300 -0.0006  0.0751 -0.1000
    1OPC    C4B72445  21.973  17.259   3.709  0.3086  0.1358  0.2800
    1OPC    NC372446  20.037  16.868   1.942 -0.0696 -0.1349 -0.5210
    1OPC    PO472447  20.184  16.467   1.759  0.1239 -0.1136 -0.0013
    1OPC    GL172448  20.440  16.457   2.216  0.0454  0.3096 -0.0692
    1OPC    GL272449  20.466  16.423   2.517 -0.0104  0.0361  0.2095
    1OPC    C1B72450  20.474  16.591   2.944 -0.0415 -0.0526 -0.0666
    1OPC    D2B72451  20.441  16.794   3.284  0.2520  0.1543 -0.0060
    1OPC    C3B72452  20.731  16.713   3.565  0.3566 -0.1146 -0.0021
    1OPC    C4B72453  20.844  16.833   4.021 -0.0604  0.1792  0.3804
    1OPC    NC372454  23.350   0.364   3.077 -0.2111 -0.0738 -0.0396
    1OPC    PO472455  23.775   0.228   2.923  0.1417  0.2794 -0.5674
    1OPC    GL172456  23.723  29.667   3.116  0.0128  0.2706 -0.0046
    1OPC    GL272457  23.731  29.514   3.356 -0.2488  0.1829  0.0172
    1OPC    C1B72458  23.851  29.464   3.811  0.1914 -0.1791 -0.0193
    1OPC    D2B72459  23.948  29.636   4.156 -0.2563  0.0035  0.0291
    1OPC    C3B72460  24.059   0.145   4.296 -0.3754  0.0376  0.2268
    1OPC    C4B72461  24.458   0.339   4.481  0.0576  0.0616  0.1064
    1OPC    NC372462  10.655   9.809   3.036  0.1262 -0.3881 -0.2131
    1OPC    PO472463  10.640   9.405   2.747 -0.0767 -0.1042  0.1264
    1OPC    GL172464  10.497   9.352   3.079 -0.0556  0.3138 -0.1771
    1OPC    GL272465  10.259   9.570   3.279 -0.2883 -0.2294 -0.0766
    1OPC    C1B72466   9.953   9.525   3.686 -0.1249  0.1405  0.2530
    1OPC    D2B72467   9.583   9.418   3.816  0.1596  0.0806 -0.3801
    1OPC    C3B72468   9.628   9.206   4.192 -0.1132 -0.1917 -0.3372
    1OPC    C4B72469   9.944   8.844   4.285  0.2271  0.0543 -0.1816
    1OPC    NC372470  22.329   9.526   2.940  0.0807  0.2695  0.1461
    1OPC    PO472471  22.217   9.051   2.857 -0.0989 -0.0045 -0.1396
    1OPC    GL172472  22.028   9.162   3.155  0.0973  0.0883  0.2936
    1OPC    GL272473  21.839   9.255   3.397 -0.3373 -0.2612  0.1025
    1OPC    C1B72474  21.746   9.251   3.899  0.0831 -0.1226 -0.1072
    1OPC    D2B72475  21.672   9.177   4.259 -0.4771 -0.0995  0.1833
    1OPC    C3B72476  21.714   9.395   4.404  0.0081  0.0925 -0.0038
    1OPC    C4B72477  21.501   9.592   4.758 -0.2655  0.2617  0.2584
    1OPC    NC372478  17.479  19.767   1.907  0.0650  0.0127 -0.2193
    1OPC    PO472479  17.391  19.299   2.072  0.2658  0.1534 -0.1600
    1OPC    GL172480  17.118  19.491   2.431 -0.2348  0.0310  0.0190
    1OPC    GL272481  17.102  19.681   2.692 -0.1566 -0.0895  0.3179
    1OPC    C1B72482  17.220  19.734   3.018  0.1952  0.0178 -0.1308
    1OPC    D2B72483  17.162  19.907   3.417  0.1460  0.0981  0.0439
    1OPC    C3B72484  17.379  20.176   3.654 -0.2027  0.4602  0.2983
    1OPC    C4B72485  17.785  20.349   3.439  0.3732  0.2779  0.0769
    1OPC    NC372486  11.942   2.055   3.415 -0.0823 -0.0395  0.0862
    1OPC    PO472487  12.144   2.513   3.568 -0.0456 -0.3410 -0.1195
    1OPC    GL172488  12.356   2.509   3.996  0.1469  0.2614  0.0728
    1OPC    GL272489  12.499   2.716   4.324 -0.3071 -0.0301  0.2296
    1OPC    C1B72490  12.594   2.595   4.704  0.2122 -0.0304  0.2519
    1OPC    D2B72491  12.476   2.599   5.021 -0.0533  0.0946 -0.0688
    1OPC    C3B72492  12.217   2.861   5.288 -0.0766 -0.1272  0.0930
    1OPC    C4B72493  11.999   2.875   5.600 -0.1320  0.0863 -0.0530
    1OPC    NC372494  14.121   9.702   2.935 -0.3056  0.0456  0.1235
    1OPC    PO472495  14.553   9.755   2.889 -0.3401 -0.1786  0.0522
    1OPC    GL172496  14.464   9.614   3.344 -0.1458  0.0956  0.0270
    1OPC    GL272497  14.328   9.518   3.664  0.1764 -0.0825  0.0641
    1OPC    C1B72498  14.179   9.548   4.157  0.2432  0.0964 -0.0766
    1OPC    D2B72499  13.996   9.611   4.526  0.1027 -0.0233 -0.1020
    1OPC    C3B72500  13.642   9.414   4.631  0.0840  0.1022  0.2846
    1OPC    C4B72501  13.283   9.495   4.913  0.2631  0.1678  0.1494
    1OPC    NC372502   6.533  13.171   1.499 -0.0274 -0.3075 -0.2325
    1OPC    PO472503   6.863  13.042   1.873  0.1606  0.2681  0.2544
    1OPC    GL172504   6.989  12.957   2.321 -0.3292 -0.1508  0.1296
    1OPC    GL272505   6.904  12.817   2.745 -0.0187 -0.2532 -0.2978
    1OPC    C1B72506   6.812  13.021   3.195 -0.0369  0.1981 -0.0375
    1OPC    D2B72507   6.836  13.367   3.571 -0.0750 -0.0230 -0.1868
    1OPC    C3B72508   6.838  13.314   4.003  0.2543 -0.0498 -0.3368
    1OPC    C4B72509   6.644  12.998   4.243 -0.1101  0.1525  0.1358
    1OPC    NC372510  20.830  22.466   2.278 -0.0143  0.0465  0.1383
    1OPC    PO472511  20.412  22.485   2.366  0.1521  0.1061  0.0099
    1OPC    GL172512  20.023  22.777   2.507 -0.3446  0.4216 -0.0906
    1OPC    GL272513  19.774  22.967   2.797 -0.0472 -0.3672  0.0017
    1OPC    C1B72514  19.586  23.129   3.179 -0.0725 -0.0607  0.0621
    1OPC    D2B72515  19.503  22.909   3.599  0.1575  0.2494 -0.1285
    1OPC    C3B72516  19.452  23.126   3.956  0.1955  0.0073 -0.0997
    1OPC    C4B72517  19.639  23.313   4.315  0.1693  0.3960  0.3820
    1OPC    NC372518   8.584   3.557   3.153  0.1433  0.0791 -0.1465
    1OPC    PO472519   8.873   3.549   3.581  0.2780 -0.0597 -0.1677
    1OPC    GL172520   8.900   3.670   3.932  0.1164 -0.1955 -0.1377
    1OPC    GL272521   9.068   3.851   4.161 -0.1977  0.2465  0.1419
    1OPC    C1B72522   8.977   4.201   4.458  0.0660 -0.1514 -0.0373
    1OPC    D2B72523   8.904   4.668   4.850 -0.2006 -0.1342  0.1323
    1OPC    C3B72524   8.538   4.541   5.170 -0.0949 -0.0595 -0.1718
    1OPC    C4B72525   8.078   4.596   4.960 -0.2592  0.0029  0.0241
    1OPC    NC372526  26.570   8.869   2.766 -0.1507 -0.1896 -0.3465
    1OPC    PO472527  26.682   8.478   2.832 -0.3086 -0.0084  0.0005
    1OPC    GL172528  26.685   8.524   3.308  0.0746 -0.0007  0.2268
    1OPC    GL272529  26.805   8.532   3.570  0.2274  0.2319 -0.0588
    1OPC    C1B72530  26.990   8.660   4.006  0.1033  0.1515 -0.4421
    1OPC    D2B72531  27.154   8.515   4.508 -0.1005 -0.0940 -0.1491
    1OPC    C3B72532  26.977   8.287   4.852 -0.1119  0.0281  0.1576
    1OPC    C4B72533  26.973   8.058   5.228 -0.0657 -0.0579 -0.2061
    1OPC    NC372534   4.988  16.788   2.926  0.1591 -0.1696 -0.1010
    1OPC    PO472535   4.621  16.780   3.147  0.3581 -0.1587  0.2190
    1OPC    GL172536   4.651  17.139   3.337  0.1919  0.4265  0.0245
    1OPC    GL272537   5.008  17.051   3.512  0.0304 -0.1688  0.2206
    1OPC    C1B72538   5.261  17.192   3.735 -0.1449 -0.0423  0.0994
    1OPC    D2B72539   5.187  17.205   4.158  0.0653  0.0049 -0.0299
    1OPC    C3B72540   4.913  17.083   4.399  0.0480  0.0975 -0.0766
    1OPC    C4B72541   4.743  16.951   4.790 -0.2406  0.0119 -0.3343
    1OPC    NC372542  26.568  19.676   2.318  0.1098  0.0380  0.1150
    1OPC    PO472543  26.857  19.486   2.593 -0.2178 -0.2132  0.0077
    1OPC    GL172544  26.714  19.355   2.936  0.1177  0.1211 -0.2881
    1OPC    GL272545  26.465  19.489   3.219  0.2144 -0.1434  0.4100
    1OPC    C1B72546  26.352  19.638   3.538 -0.1600 -0.1576  0.4444
    1OPC    D2B72547  26.328  19.741   3.968 -0.1196  0.0107 -0.2357
    1OPC    C3B72548  26.456  19.499   4.223 -0.0096 -0.0745 -0.1844
    1OPC    C4B72549  26.422  19.067   4.406  0.0962 -0.0119 -0.2255
    1OPC    NC372550  19.680  23.192   1.167 -0.0167  0.2020  0.2265
    1OPC    PO472551  19.782  22.930   1.552  0.0793 -0.1347  0.1805
    1OPC    GL172552  19.582  22.940   2.072 -0.1714 -0.0890 -0.1950
    1OPC    GL272553  19.508  23.081   2.359 -0.1023  0.0413 -0.1414
    1OPC    C1B72554  19.433  23.331   2.722  0.0480 -0.2225  0.0869
    1OPC    D2B72555  19.122  23.375   3.104  0.1959  0.2621  0.2647
    1OPC    C3B72556  18.839  23.665   3.286 -0.0724 -0.1145  0.1233
    1OPC    C4B72557  18.537  23.983   3.402  0.0673 -0.0696 -0.0056
    1OPC    NC372558   0.277   4.428   2.787 -0.0980  0.0419 -0.1333
    1OPC    PO472559   0.443   4.064   2.682 -0.0730 -0.4654 -0.1973
    1OPC    GL172560   0.106   4.065   3.134 -0.2437  0.2878  0.1392
    1OPC    GL272561   0.042   4.032   3.480 -0.1795 -0.1460  0.0685
    1OPC    C1B72562  29.783   4.394   3.800  0.3279 -0.0003  0.2235
    1OPC    D2B72563  29.813   4.602   4.113  0.2429 -0.2054 -0.2701
    1OPC    C3B72564  29.830   4.430   4.568  0.0394  0.2958  0.4954
    1OPC    C4B72565   0.292   4.316   4.781  0.3247 -0.1183 -0.0667
    1OPC    NC372566  24.951  14.734   2.726 -0.0826  0.1873  0.1584
    1OPC    PO472567  25.364  14.633   2.502 -0.2244 -0.1968  0.0454
    1OPC    GL172568  25.346  14.614   2.996  0.1243  0.0544 -0.0741
    1OPC    GL272569  25.250  14.612   3.301  0.2665 -0.0488 -0.1475
    1OPC    C1B72570  25.219  14.714   3.735  0.0392  0.0486 -0.0654
    1OPC    D2B72571  25.238  14.816   4.203 -0.1324 -0.3651  0.1419
    1OPC    C3B72572  25.271  14.586   4.668 -0.0066  0.0541 -0.1023
    1OPC    C4B72573  25.373  14.597   5.143 -0.2260  0.0843 -0.1083
    1OPC    NC372574  21.476   6.096   3.708  0.1367 -0.0429  0.1292
    1OPC    PO472575  21.163   5.855   3.798 -0.1385  0.0017  0.0410
    1OPC    GL172576  20.704   5.942   3.973  0.1581  0.2917 -0.0965
    1OPC    GL272577  20.581   5.990   4.308  0.3109 -0.1555  0.2606
    1OPC    C1B72578  20.549   5.988   4.653 -0.2344  0.3478  0.2581
    1OPC    D2B72579  20.705   5.960   5.008  0.0763  0.0093 -0.1448
    1OPC    C3B72580  20.514   5.966   5.324 -0.1912  0.2533  0.1571
    1OPC    C4B72581  20.488   6.091   5.778 -0.3248  0.0685 -0.2416
    1OPC    NC372582  18.375  17.801   2.358  0.1437 -0.1374  0.0001
    1OPC    PO472583  17.967  17.835   2.366  0.0582  0.1371 -0.0693
    1OPC    GL172584  17.726  17.605   2.713 -0.2844 -0.0991  0.3065
    1OPC    GL272585  17.672  17.533   3.044 -0.2052  0.0555  0.1997
    1OPC    C1B72586  17.677  17.514   3.478  0.3000  0.0905  0.0215
    1OPC    D2B72587  17.626  17.199   3.851 -0.1149  0.1392  0.0513
    1OPC    C3B72588  17.666  16.770   3.777 -0.0752 -0.0221  0.1129
    1OPC    C4B72589  17.996  16.509   3.880  0.0778 -0.1341 -0.0792
    1OPC    NC372590   6.926   3.840   2.937  0.0025  0.0560 -0.2707
    1OPC    PO472591   6.508   3.640   3.090  0.0766  0.1695  0.0395
    1OPC    GL172592   6.761   3.803   3.470  0.1096  0.0224 -0.0396
    1OPC    GL272593   6.779   4.068   3.693  0.1725  0.1204  0.3752
    1OPC    C1B72594   6.539   4.170   3.990 -0.2016 -0.2476 -0.3396
    1OPC    D2B72595   6.243   4.167   4.374  0.1211 -0.4299  0.1786
    1OPC    C3B72596   6.133   4.330   4.811  0.0074 -0.1788  0.2252
    1OPC    C4B72597   6.087   4.298   5.240 -0.1206 -0.2485 -0.0836
    1OPC    NC372598  10.769  26.286   1.761 -0.2735 -0.3368 -0.0445
    1OPC    PO472599  10.892  25.833   2.040 -0.2475  0.1635 -0.0030
    1OPC    GL172600  11.284  25.938   2.357  0.0019 -0.0846 -0.1369
    1OPC    GL272601  11.384  25.910   2.592  0.2435  0.0824  0.0931
    1OPC    C1B72602  11.158  25.619   2.830 -0.0301 -0.0422  0.2116
    1OPC    D2B72603  10.878  25.613   3.237 -0.1250 -0.0272  0.2022
    1OPC    C3B72604  11.129  25.869   3.479  0.1591 -0.0524  0.0401
    1OPC    C4B72605  11.044  26.200   3.849  0.2688  0.2855 -0.0274
    1OPC    NC372606  26.789   2.857   2.688  0.0753  0.1193  0.0276
    1OPC    PO472607  26.567   3.094   2.951  0.0810 -0.0703  0.0833
    1OPC    GL172608  26.499   2.956   3.257 -0.1617  0.1713 -0.0154
    1OPC    GL272609  26.627   2.786   3.565 -0.2736 -0.1724 -0.0252
    1OPC    C1B72610  26.774   2.683   4.007  0.0396  0.0900  0.0437
    1OPC    D2B72611  26.864   2.809   4.475 -0.1234 -0.2024 -0.1976
    1OPC    C3B72612  26.487   2.642   4.664 -0.2942  0.2052 -0.3176
    1OPC    C4B72613  26.094   2.732   4.846 -0.0565 -0.3386 -0.1857
    1OPC    NC372614  15.241  25.731   2.043 -0.0551  0.0356  0.2478
    1OPC    PO472615  15.518  26.061   2.250 -0.0481 -0.2338 -0.0355
    1OPC    GL172616  15.633  26.083   2.670 -0.1813 -0.0579 -0.0198
    1OPC    GL272617  15.568  25.797   2.841  0.0460  0.1185 -0.2588
    1OPC    C1B72618  15.584  25.363   2.992  0.2426 -0.0132  0.0040
    1OPC    D2B72619  15.451  24.983   3.349 -0.3508 -0.4481  0.1533
    1OPC    C3B72620  15.424  24.910   3.851 -0.0601 -0.2214 -0.2095
    1OPC    C4B72621  15.736  25.052   4.182 -0.1561  0.1744 -0.0622
    1OPC    NC372622  15.920  14.551   1.976 -0.3232  0.0726  0.2347
    1OPC    PO472623  15.947  14.076   2.047  0.1050 -0.0944 -0.1750
    1OPC    GL172624  15.911  14.175   2.410 -0.0270 -0.0951 -0.1808
    1OPC    GL272625  15.710  14.228   2.702  0.0535 -0.0421 -0.0205
    1OPC    C1B72626  15.593  14.085   3.024  0.0393  0.0276 -0.2170
    1OPC    D2B72627  15.516  13.685   3.195 -0.1565 -0.1764 -0.1177
    1OPC    C3B72628  15.542  13.651   3.690 -0.3215 -0.0237 -0.0326
    1OPC    C4B72629  15.421  13.863   4.166 -0.0816 -0.1323 -0.1489
    1OPC    NC372630   5.506  21.005   2.107 -0.0847 -0.2114 -0.1899
    1OPC    PO472631   5.224  20.896   2.381 -0.0283  0.1672  0.0841
    1OPC    GL172632   5.252  21.089   2.731  0.0884  0.1039  0.2061
    1OPC    GL272633   5.312  21.139   3.027 -0.2841  0.2542  0.3606
    1OPC    C1B72634   5.600  21.199   3.320  0.1412  0.1248 -0.1507
    1OPC    D2B72635   5.682  21.078   3.709 -0.2781  0.0472 -0.2637
    1OPC    C3B72636   5.862  20.708   3.729  0.2049  0.0723  0.0541
    1OPC    C4B72637   6.263  20.599   3.807 -0.2268  0.2898  0.0753
  29.85852  29.85852   9.52979
